ITEM: TIMESTEP
0
ITEM: NUMBER OF ATOMS
3080
ITEM: BOX BOUNDS pp pp pp
0.000000 9.396385
0.000000 9.396385
0.000000 11.145360
ITEM: ATOMS id mol type x y z
1 1 1 0.000000 0.000000 0.927109
2 1 2 -0.251776 0.268266 0.894435
3 1 3 -0.233821 0.137504 1.363536
4 1 4 -0.541265 0.157821 1.949453
5 1 1 -0.034319 0.030773 1.321859
6 1 2 0.338468 -0.028062 1.249723
7 1 3 0.697703 0.296953 1.045199
8 1 4 1.305822 0.519954 1.231537
9 1 1 0.036446 0.029154 1.690421
10 1 2 0.280351 0.297508 1.637024
11 1 3 0.337564 0.672417 1.331511
12 1 4 0.522755 1.307475 1.359367
13 1 1 -0.308503 -0.034720 1.915027
14 1 2 -0.401855 -0.143486 1.565660
15 1 3 -0.883797 -0.191507 1.287597
16 1 4 -1.486853 -0.022128 1.545152
17 1 1 -0.432677 -0.302103 2.103187
18 1 2 -0.051070 -0.350821 2.153463
19 1 3 0.394820 -0.697139 2.093424
20 1 4 0.320954 -1.130283 2.561062
21 2 1 0.000000 10.962450 0.927109
22 2 2 -0.123953 11.015018 0.583815
23 2 3 -0.474749 11.404837 0.523270
24 2 4 -0.792279 11.967559 0.704619
25 2 1 0.212577 11.270905 0.790438
26 2 2 0.478310 11.023994 0.706819
27 2 3 0.795024 10.573553 0.632057
28 2 4 1.391718 10.655644 0.931442
29 2 1 0.355251 11.404841 0.445827
30 2 2 0.632199 11.350101 0.699442
31 2 3 0.575440 11.346488 1.249446
32 2 4 1.231586 11.436831 1.336781
33 2 1 0.554165 11.774842 0.471235
34 2 2 0.356338 12.086642 0.579597
35 2 3 0.218622 12.580824 0.801014
36 2 4 0.806393 12.864171 0.744177
37 2 1 0.830918 11.479295 0.571226
38 2 2 0.785609 11.106446 0.581263
39 2 3 1.290223 10.951810 0.494413
40 2 4 1.572476 10.345007 0.481395
41 3 1 0.000000 21.924899 0.927109
42 3 2 0.340703 21.791541 0.836554
43 3 3 0.496165 21.475502 1.249741
44 3 4 0.852727 22.008041 1.433050
45 3 1 0.035297 22.081730 0.569670
46 3 2 0.197604 22.415344 0.564168
47 3 3 0.714730 22.541379 0.507761
48 3 4 1.249844 22.432416 0.836607
49 3 1 0.004638 22.418334 0.611582
50 3 2 0.363372 22.435820 0.656818
51 3 3 0.468709 22.862236 1.027875
52 3 4 0.003983 23.051071 1.449240
53 3 1 0.193428 22.602002 0.898701
54 3 2 0.454556 22.690261 0.644965
55 3 3 0.920492 22.459756 0.766487
56 3 4 1.477061 22.485062 0.469863
57 3 1 0.266903 22.321694 1.146151
58 3 2 -0.077273 22.178613 1.136116
59 3 3 -0.453565 22.564761 1.209323
60 3 4 -0.682770 23.123412 0.967311
61 4 1 0.000000 32.887349 0.927109
62 4 2 -0.264742 33.001450 1.158047
63 4 3 -0.738274 32.890427 0.988301
64 4 4 -1.298464 32.708213 1.277467
65 4 1 0.109024 33.167038 1.196219
66 4 2 0.171173 33.367202 0.874352
67 4 3 0.624075 33.693101 0.835870
68 4 4 1.196908 33.820070 0.496868
69 4 1 0.213968 33.420657 0.884566
70 4 2 -0.052916 33.179637 0.801875
71 4 3 -0.211425 32.956506 1.224451
72 4 4 -0.787943 33.147413 1.440174
73 4 1 0.405862 33.130613 0.701118
74 4 2 0.693096 33.374005 0.629640
75 4 3 1.128084 33.226583 0.930763
76 4 4 1.536025 33.671045 1.198082
77 4 1 0.568398 32.923663 1.016687
78 4 2 0.506648 33.251429 1.181755
79 4 3 0.102775 33.099755 1.546372
80 4 4 -0.358030 33.185654 1.952212
81 5 1 0.000000 43.849799 0.927109
82 5 2 -0.080353 43.884960 0.551315
83 5 3 -0.339605 44.271650 0.809961
84 5 4 -0.491274 44.227171 1.455154
85 5 1 0.080326 44.246516 1.067470
86 5 2 0.310876 43.992965 1.234859
87 5 3 0.816357 44.083043 1.478940
88 5 4 1.089296 43.593653 1.857413
89 5 1 0.192149 44.301224 1.426265
90 5 2 -0.167903 44.393628 1.411142
91 5 3 -0.546889 44.065206 1.468967
92 5 4 -0.786233 43.557046 1.847926
93 5 1 0.188016 44.708180 1.511945
94 5 2 0.547275 44.575677 1.490302
95 5 3 0.718063 44.168067 1.627743
96 5 4 1.230995 44.215307 2.029279
97 5 1 0.418548 45.044460 1.471408
98 5 2 0.322520 44.827286 1.168134
99 5 3 -0.161262 44.888728 0.962527
100 5 4 -0.689619 44.541525 0.765890
101 6 1 0.000000 54.812248 0.927109
102 6 2 0.111392 54.926280 1.238824
103 6 3 -0.031651 54.986504 1.796997
104 6 4 -0.503427 54.734850 2.178564
105 6 1 0.351140 54.767256 1.018934
106 6 2 0.360536 55.130251 0.999358
107 6 3 0.477835 55.372277 1.459795
108 6 4 1.104215 55.583322 1.584966
109 6 1 0.348322 54.398247 1.112906
110 6 2 0.706765 54.474152 1.079010
111 6 3 0.843805 54.519124 1.547388
112 6 4 1.373885 54.284427 1.897607
113 6 1 0.532972 54.185504 0.879814
114 6 2 0.265034 53.930321 0.925121
115 6 3 0.156167 53.809718 1.422080
116 6 4 0.463981 53.848042 2.004528
117 6 1 0.249504 53.928848 0.734635
118 6 2 -0.003982 54.204837 0.710306
119 6 3 -0.477413 53.980389 0.740511
120 6 4 -1.109593 54.169954 0.661303
121 7 1 10.962450 0.000000 0.927109
122 7 2 10.642007 0.161111 0.981607
123 7 3 10.374504 0.559880 1.178295
124 7 4 10.119901 0.712470 1.787889
125 7 1 11.086867 -0.151621 1.296025
126 7 2 11.255144 0.190033 1.258385
127 7 3 11.700076 0.468998 1.451771
128 7 4 11.279055 0.921386 1.201043
129 7 1 10.746117 -0.016589 1.427844
130 7 2 10.578391 -0.049968 1.089167
131 7 3 10.184749 -0.283475 0.890012
132 7 4 9.852338 -0.509654 1.438251
133 7 1 10.979247 0.182889 1.676817
134 7 2 10.926783 -0.166881 1.747548
135 7 3 10.500556 -0.438476 1.975110
136 7 4 10.053580 -0.919717 1.861508
137 7 1 11.126199 0.121560 2.002736
138 7 2 10.853233 -0.003323 2.242514
139 7 3 10.516106 0.186002 2.526485
140 7 4 10.413673 0.749752 2.861439
141 8 1 10.962450 10.962450 0.927109
142 8 2 11.252370 10.836042 0.745510
143 8 3 11.613648 11.099305 0.501038
144 8 4 12.239680 10.966140 0.485131
145 8 1 11.197066 11.230616 0.947909
146 8 2 11.280622 11.039113 1.267247
147 8 3 11.824762 10.852919 1.330923
148 8 4 12.295010 11.097245 1.742066
149 8 1 11.013154 11.508201 1.139055
150 8 2 11.039705 11.188570 1.345538
151 8 3 11.351824 11.073353 1.753383
152 8 4 11.997363 10.841448 1.733757
153 8 1 10.613668 11.553344 1.162114
154 8 2 10.723377 11.185320 1.207574
155 8 3 10.993544 10.843502 0.917153
156 8 4 11.512577 10.480346 1.059190
157 8 1 10.369698 11.345629 0.993044
158 8 2 10.695478 11.183585 0.939389
159 8 3 10.901761 11.412979 0.527497
160 8 4 11.023213 12.063247 0.611185
161 9 1 10.962450 21.924899 0.927109
162 9 2 10.852516 21.939145 1.278825
163 9 3 11.197327 22.181044 1.580230
164 9 4 11.066421 22.711686 1.963252
165 9 1 10.945418 22.288681 1.051534
166 9 2 10.707501 22.220459 0.760290
167 9 3 10.444288 21.833329 0.485235
168 9 4 10.789065 21.282276 0.450947
169 9 1 11.110643 22.312971 1.463710
170 9 2 11.353683 22.035783 1.404383
171 9 3 11.895515 22.016592 1.428822
172 9 4 12.092845 22.375730 1.936552
173 9 1 11.035706 21.940165 1.666196
174 9 2 10.646064 21.956319 1.691759
175 9 3 10.215579 22.285124 1.686873
176 9 4 10.205938 22.785907 2.149118
177 9 1 11.314321 21.772526 1.477672
178 9 2 11.416899 21.771236 1.850640
179 9 3 11.496495 21.402832 2.212195
180 9 4 11.714716 21.769916 2.689574
181 10 1 10.962450 32.887349 0.927109
182 10 2 10.745549 33.161029 1.087077
183 10 3 10.488748 33.389183 0.778149
184 10 4 9.859401 33.558572 0.733339
185 10 1 10.924348 33.059525 0.572461
186 10 2 11.087957 32.744819 0.453222
187 10 3 11.266962 32.297721 0.568462
188 10 4 11.525861 31.975883 1.073999
189 10 1 10.993223 32.698099 0.431453
190 10 2 10.826343 32.520659 0.725912
191 10 3 10.749528 32.676374 1.273379
192 10 4 10.571513 32.135810 1.619312
193 10 1 11.099839 32.417082 0.663139
194 10 2 10.807952 32.265270 0.482210
195 10 3 10.316871 32.156348 0.482889
196 10 4 9.933571 31.624467 0.460398
197 10 1 11.447515 32.438640 0.868672
198 10 2 11.486220 32.472879 0.493098
199 10 3 11.818012 32.899653 0.630089
200 10 4 12.038362 32.863139 1.254789
201 11 1 10.962450 43.849799 0.927109
202 11 2 10.780675 44.166803 1.038582
203 11 3 10.243629 44.097939 1.117738
204 11 4 9.821130 43.705878 1.402937
205 11 1 10.628016 43.671665 1.000970
206 11 2 10.769808 43.612942 0.648343
207 11 3 10.397233 43.284793 0.427256
208 11 4 10.461182 42.642433 0.443790
209 11 1 10.516615 44.024146 1.079125
210 11 2 10.735769 43.962771 1.368177
211 11 3 10.855736 43.502287 1.535630
212 11 4 10.997274 43.172719 2.055983
213 11 1 10.392734 44.320899 0.830998
214 11 2 10.145568 44.036372 0.817947
215 11 3 9.889706 43.593546 0.589396
216 11 4 9.427717 43.115793 0.797446
217 11 1 10.265102 44.287126 0.478478
218 11 2 9.984105 44.523334 0.566298
219 11 3 9.491390 44.556075 0.706970
220 11 4 9.003549 44.107816 0.715348
221 12 1 10.962450 54.812248 0.927109
222 12 2 10.967200 54.775490 1.306191
223 12 3 10.708202 54.375898 1.536587
224 12 4 11.008639 53.836508 1.795367
225 12 1 11.286301 55.039239 0.992731
226 12 2 11.057308 55.247987 1.191305
227 12 3 10.869061 55.496524 1.622168
228 12 4 11.273406 55.686972 2.074625
229 12 1 11.307243 55.297595 0.755267
230 12 2 11.551772 55.341421 1.051296
231 12 3 11.191286 55.579055 1.319136
232 12 4 10.506818 55.641897 1.310949
233 12 1 11.053591 55.280759 0.433870
234 12 2 10.725371 55.249832 0.605305
235 12 3 10.679582 55.570852 1.042701
236 12 4 10.595248 56.245937 1.006461
237 12 1 10.660278 55.174009 0.515096
238 12 2 10.606936 55.234817 0.889657
239 12 3 10.312633 54.890458 1.194333
240 12 4 10.538724 54.386523 0.865584
241 13 1 21.924899 0.000000 0.927109
242 13 2 22.079395 0.246249 1.144791
243 13 3 21.922229 0.750295 1.099518
244 13 4 21.278242 0.775978 1.237401
245 13 1 21.823644 -0.222289 1.232895
246 13 2 22.006541 0.071626 1.387090
247 13 3 22.219144 0.181826 1.894827
248 13 4 21.828241 -0.338029 1.910175
249 13 1 21.881087 -0.134195 1.607957
250 13 2 22.072656 -0.452196 1.575899
251 13 3 22.044322 -0.931711 1.734659
252 13 4 21.792945 -1.085627 2.311088
253 13 1 22.229536 -0.237330 1.758075
254 13 2 22.184976 -0.522016 1.531970
255 13 3 22.565034 -0.685240 1.816245
256 13 4 22.971503 -0.188539 1.650691
257 13 1 22.275379 -0.511649 1.510581
258 13 2 22.596331 -0.393118 1.637351
259 13 3 22.649420 -0.319829 2.102774
260 13 4 23.130045 -0.377448 2.550461
261 14 1 21.924899 10.962450 0.927109
262 14 2 21.642638 11.176859 0.996978
263 14 3 21.927103 11.596227 0.988660
264 14 4 21.487216 11.942730 1.306786
265 14 1 21.832271 10.626753 0.924805
266 14 2 22.061062 10.707783 0.638883
267 14 3 22.485073 10.379724 0.522258
268 14 4 22.871959 9.832969 0.480150
269 14 1 22.185293 10.443797 0.898011
270 14 2 21.973322 10.213188 1.128229
271 14 3 21.726741 10.613499 0.875843
272 14 4 21.788507 11.188045 1.242873
273 14 1 22.172315 10.374979 0.528162
274 14 2 21.876034 10.510712 0.679134
275 14 3 21.349880 10.346323 0.502067
276 14 4 21.005390 10.441792 1.092277
277 14 1 22.510849 10.294573 0.654523
278 14 2 22.523019 9.911832 0.665604
279 14 3 22.834010 9.507964 0.723317
280 14 4 23.005691 9.111450 1.217062
281 15 1 21.924899 21.924899 0.927109
282 15 2 21.905999 21.630554 1.179889
283 15 3 22.035896 21.140147 1.336642
284 15 4 22.113159 21.076168 1.991426
285 15 1 22.166647 22.171370 1.139854
286 15 2 22.014668 21.975929 1.418216
287 15 3 21.943153 22.056472 1.908574
288 15 4 21.986074 22.550558 2.322957
289 15 1 22.252660 22.528149 1.063125
290 15 2 22.238990 22.465507 0.690648
291 15 3 21.973337 22.113265 0.516258
292 15 4 21.628141 21.555246 0.597237
293 15 1 22.574022 22.543425 0.851503
294 15 2 22.514242 22.187214 0.727912
295 15 3 22.550527 21.817989 1.125678
296 15 4 22.508320 21.231458 1.423115
297 15 1 22.452440 22.803022 0.629699
298 15 2 22.509212 22.885242 0.988758
299 15 3 22.335932 22.631151 1.375501
300 15 4 21.785095 22.953447 1.452729
301 16 1 21.924899 32.887349 0.927109
302 16 2 22.233787 32.985187 1.123648
303 16 3 22.179224 32.455119 1.141347
304 16 4 22.071434 31.930869 0.755397
305 16 1 22.142029 32.778194 0.650007
306 16 2 21.983064 32.513814 0.447296
307 16 3 21.679516 32.079172 0.514988
308 16 4 21.483145 32.147014 1.161212
309 16 1 22.270928 33.057835 0.437308
310 16 2 21.953732 33.163034 0.610467
311 16 3 21.498026 33.154180 0.743812
312 16 4 20.898762 33.371279 0.613573
313 16 1 22.560356 33.004523 0.662915
314 16 2 22.617854 32.641849 0.635749
315 16 3 22.547654 32.254048 0.997881
316 16 4 22.956232 31.800361 1.239575
317 16 1 22.595207 33.292832 0.877196
318 16 2 22.750583 33.133988 1.187717
319 16 3 22.970108 32.734825 0.929199
320 16 4 22.467949 32.627942 0.493576
321 17 1 21.924899 43.849799 0.927109
322 17 2 22.259926 44.011394 0.938615
323 17 3 22.664071 43.976664 0.609665
324 17 4 23.280932 44.118661 0.782471
325 17 1 22.066866 43.516181 0.771632
326 17 2 22.123518 43.797648 0.525826
327 17 3 22.617030 44.068993 0.461110
328 17 4 22.996472 44.529764 0.748710
329 17 1 22.283922 43.210556 0.693424
330 17 2 22.571060 43.320366 0.480754
331 17 3 22.944826 43.636338 0.537851
332 17 4 23.229851 43.684735 1.131607
333 17 1 22.639056 43.074200 0.513926
334 17 2 22.316869 42.875123 0.513432
335 17 3 22.036096 43.260805 0.700748
336 17 4 21.466181 43.224940 1.035036
337 17 1 22.805154 43.437828 0.441346
338 17 2 22.501677 43.515348 0.632513
339 17 3 22.402539 43.178856 1.030115
340 17 4 22.589241 43.397248 1.647155
341 18 1 21.924899 54.812248 0.927109
342 18 2 22.008340 54.589900 0.637157
343 18 3 22.234049 55.086796 0.565681
344 18 4 22.855612 55.061742 0.697744
345 18 1 21.638425 54.566209 0.888300
346 18 2 21.522514 54.702956 1.207167
347 18 3 21.393198 54.368472 1.620277
348 18 4 21.357042 54.622932 2.228610
349 18 1 21.403385 54.864788 0.785907
350 18 2 21.792456 54.896581 0.835279
351 18 3 22.027627 54.792406 1.245338
352 18 4 22.486259 54.323318 1.174997
353 18 1 21.313583 54.661658 1.083651
354 18 2 21.670955 54.605337 1.042952
355 18 3 21.876594 54.734035 0.626325
356 18 4 22.123869 55.208921 0.990084
357 18 1 20.976908 54.530886 1.188979
358 18 2 21.139405 54.223496 1.338434
359 18 3 21.122693 53.694037 1.427532
360 18 4 21.111469 53.399237 2.045889
361 19 1 32.887349 0.000000 0.927109
362 19 2 32.963810 -0.179751 0.601911
363 19 3 32.761208 -0.716431 0.457502
364 19 4 32.714090 -1.375868 0.444429
365 19 1 32.521083 -0.022904 0.774733
366 19 2 32.457566 -0.060584 1.140931
367 19 3 31.987131 -0.205085 1.232047
368 19 4 31.431214 -0.255398 0.829967
369 19 1 32.268057 0.262737 0.699226
370 19 2 32.118502 -0.012758 0.491426
371 19 3 31.934939 -0.422297 0.655069
372 19 4 31.912716 -1.085740 0.661610
373 19 1 32.219559 0.637004 0.871480
374 19 2 32.417380 0.750089 0.571508
375 19 3 32.916464 0.696100 0.606604
376 19 4 33.546765 0.838294 0.511574
377 19 1 32.396400 0.945889 0.742824
378 19 2 32.032809 1.060488 0.788064
379 19 3 31.958584 1.336287 1.280871
380 19 4 31.932082 1.992536 1.230713
381 20 1 32.887349 10.962450 0.927109
382 20 2 33.201782 10.923071 1.109846
383 20 3 33.127096 10.424699 1.143584
384 20 4 32.512001 10.709229 1.115263
385 20 1 32.841786 10.700463 1.169695
386 20 2 32.496052 10.615897 1.047912
387 20 3 32.123865 10.335586 0.835398
388 20 4 31.545462 10.194858 0.571198
389 20 1 32.454954 10.592745 1.268998
390 20 2 32.643699 10.283543 1.252537
391 20 3 32.700262 9.823750 1.066485
392 20 4 32.371415 9.957420 0.527431
393 20 1 32.347742 10.935838 1.421758
394 20 2 32.005362 11.062982 1.380831
395 20 3 31.837992 11.094610 1.899729
396 20 4 31.698589 11.760304 1.844918
397 20 1 32.019140 11.117755 1.279408
398 20 2 32.082840 11.061995 0.921372
399 20 3 31.677585 11.083926 0.515223
400 20 4 31.190738 10.747110 0.803036
401 21 1 32.887349 21.924899 0.927109
402 21 2 32.871430 22.006216 0.563268
403 21 3 33.431748 21.956393 0.524419
404 21 4 33.810023 22.316832 0.914087
405 21 1 32.614795 22.155902 0.845685
406 21 2 32.303150 21.960276 0.841270
407 21 3 32.155829 21.625636 1.280285
408 21 4 32.246011 21.005372 1.529050
409 21 1 32.431456 22.567877 0.804091
410 21 2 32.579489 22.568335 1.154387
411 21 3 32.410247 22.217740 1.517012
412 21 4 31.840163 21.915607 1.589605
413 21 1 32.393204 22.662752 1.134762
414 21 2 32.480148 22.998659 0.988750
415 21 3 32.906576 23.360334 0.893606
416 21 4 32.672547 23.983596 1.030922
417 21 1 32.418726 22.458092 1.469841
418 21 2 32.765852 22.357550 1.536910
419 21 3 32.779414 22.300586 2.044355
420 21 4 32.650378 22.122957 2.641653
421 22 1 32.887349 32.887349 0.927109
422 22 2 33.074618 33.051549 0.648643
423 22 3 33.270401 33.554334 0.676044
424 22 4 33.827183 33.787281 0.905620
425 22 1 32.595507 33.066099 0.922306
426 22 2 32.918318 33.261912 0.864456
427 22 3 33.352023 33.164399 1.124947
428 22 4 33.749646 32.836827 1.595230
429 22 1 32.335257 32.873087 1.146124
430 22 2 32.498791 33.109031 1.383933
431 22 3 32.995008 33.270848 1.576662
432 22 4 33.556301 32.999363 1.802859
433 22 1 32.033357 33.075353 1.268375
434 22 2 31.904736 33.319509 1.020900
435 22 3 31.469245 33.597288 1.021545
436 22 4 31.105585 33.743822 0.489050
437 22 1 31.949929 32.766645 1.469529
438 22 2 31.812405 32.496803 1.256018
439 22 3 31.427890 32.352495 0.921785
440 22 4 31.076337 32.686079 0.472596
441 23 1 32.887349 43.849799 0.927109
442 23 2 33.093493 43.556404 0.981155
443 23 3 33.010845 43.288939 1.460920
444 23 4 33.289664 42.695922 1.512748
445 23 1 33.061959 43.658822 0.610853
446 23 2 33.008101 43.361806 0.863804
447 23 3 32.783759 43.483034 1.325890
448 23 4 32.819930 43.173328 1.875431
449 23 1 32.903380 43.313771 0.439794
450 23 2 33.166400 43.118180 0.643080
451 23 3 33.689244 43.305330 0.747081
452 23 4 34.055990 43.143084 1.268846
453 23 1 32.535043 43.386740 0.504869
454 23 2 32.562951 43.478262 0.873841
455 23 3 32.254846 43.124989 1.180309
456 23 4 31.652994 43.290338 0.943990
457 23 1 32.221384 43.201852 0.475328
458 23 2 32.365326 42.865921 0.432949
459 23 3 32.264106 42.592019 0.843098
460 23 4 32.639195 42.121973 1.111486
461 24 1 32.887349 54.812248 0.927109
462 24 2 32.693337 54.507201 0.830842
463 24 3 32.485204 54.057724 1.135455
464 24 4 32.041624 53.632363 0.888329
465 24 1 33.004398 54.627488 0.606711
466 24 2 33.250676 54.495881 0.839422
467 24 3 33.334891 54.080112 1.205966
468 24 4 33.015479 53.517106 1.154375
469 24 1 32.844036 54.452700 0.874575
470 24 2 32.900813 54.780956 1.039664
471 24 3 32.578152 55.124666 1.178891
472 24 4 32.770641 55.712377 1.012402
473 24 1 32.942304 54.165978 1.129764
474 24 2 33.262533 54.041298 1.027084
475 24 3 33.781722 54.089133 1.091410
476 24 4 34.343446 53.919740 0.713094
477 24 1 33.190955 54.276062 1.413305
478 24 2 33.395986 54.273487 1.097580
479 24 3 33.791685 54.609084 1.202314
480 24 4 34.023788 55.216101 1.279481
481 25 1 43.849799 0.000000 0.927109
482 25 2 43.583572 -0.249890 0.904000
483 25 3 43.470560 -0.801427 0.897603
484 25 4 43.909117 -1.104888 0.517181
485 25 1 43.617567 0.299563 0.870842
486 25 2 43.483039 -0.001110 0.678996
487 25 3 43.176865 -0.457392 0.626165
488 25 4 42.538688 -0.418873 0.449948
489 25 1 43.672632 0.412677 0.537076
490 25 2 43.936917 0.163970 0.624638
491 25 3 44.012525 -0.340716 0.843120
492 25 4 43.759084 -0.823081 0.484970
493 25 1 43.762278 0.685902 0.772404
494 25 2 43.872935 0.398270 0.961862
495 25 3 43.540764 -0.026244 0.916820
496 25 4 43.618461 -0.649625 1.121838
497 25 1 43.408338 0.673450 0.923965
498 25 2 43.630537 0.834207 1.164702
499 25 3 43.694410 0.787393 1.667632
500 25 4 43.724346 1.197475 2.171238
501 26 1 43.849799 10.962450 0.927109
502 26 2 43.851707 10.674680 1.172260
503 26 3 43.822813 10.149931 1.077608
504 26 4 43.807509 9.531370 1.286210
505 26 1 43.719620 10.702292 0.674133
506 26 2 43.806957 11.049401 0.564520
507 26 3 44.305023 11.137007 0.754638
508 26 4 44.607132 10.550047 0.810766
509 26 1 43.736685 10.330851 0.794979
510 26 2 44.046403 10.127631 0.695558
511 26 3 44.422731 10.424772 0.441468
512 26 4 44.618052 11.034151 0.607088
513 26 1 43.772523 10.016734 1.010550
514 26 2 43.796281 9.821693 0.684079
515 26 3 43.808021 9.263660 0.649049
516 26 4 43.569680 8.788182 0.977406
517 26 1 43.757222 9.711687 0.812947
518 26 2 43.977746 9.829194 0.506356
519 26 3 44.511109 9.843833 0.612981
520 26 4 44.832835 9.781565 1.188581
521 27 1 43.849799 21.924899 0.927109
522 27 2 43.536065 21.794925 0.780992
523 27 3 43.166909 21.706363 1.152297
524 27 4 43.131608 21.242563 1.619649
525 27 1 43.657316 22.172420 0.703686
526 27 2 43.749261 22.332604 1.036741
527 27 3 44.220226 22.282882 0.894775
528 27 4 44.439851 21.722859 0.613932
529 27 1 43.537437 21.888490 0.472071
530 27 2 43.817537 21.700850 0.610383
531 27 3 44.209377 21.368186 0.586328
532 27 4 44.022506 20.926162 1.074858
533 27 1 43.597281 21.469491 0.457776
534 27 2 43.955773 21.543620 0.493246
535 27 3 44.163297 21.383063 1.009637
536 27 4 44.640121 21.502979 1.450230
537 27 1 43.644489 21.125917 0.599006
538 27 2 43.847523 21.263557 0.883579
539 27 3 44.191798 21.637406 0.839548
540 27 4 44.354823 22.016768 1.363157
541 28 1 43.849799 32.887349 0.927109
542 28 2 43.677603 32.677943 1.165339
543 28 3 43.268082 32.415152 1.369673
544 28 4 42.640607 32.523778 1.563315
545 28 1 44.170150 32.890507 1.119258
546 28 2 44.378675 32.797481 0.809760
547 28 3 44.891826 32.691284 1.020841
548 28 4 44.889366 32.035368 1.175242
549 28 1 44.216971 32.650565 0.822815
550 28 2 44.137186 32.299279 0.892140
551 28 3 44.359789 31.945511 1.218603
552 28 4 44.811819 31.615102 0.827252
553 28 1 44.495074 32.369786 0.915440
554 28 2 44.253493 32.426205 1.200524
555 28 3 44.373096 32.871997 1.226590
556 28 4 44.503145 33.516460 1.154591
557 28 1 44.705467 32.429179 1.210228
558 28 2 44.357884 32.427132 1.369959
559 28 3 44.400095 32.627434 1.864162
560 28 4 43.985980 32.978809 1.468412
561 29 1 43.849799 43.849799 0.927109
562 29 2 44.012060 44.148632 0.779909
563 29 3 44.274491 44.443501 0.448242
564 29 4 44.305441 45.067133 0.651385
565 29 1 43.652821 44.084254 1.097129
566 29 2 43.421765 43.844691 1.245615
567 29 3 43.009552 44.156921 1.176010
568 29 4 42.947766 44.144070 1.826992
569 29 1 43.347597 44.283308 0.972301
570 29 2 43.556466 44.586860 1.018880
571 29 3 43.351704 44.912708 1.299049
572 29 4 42.900554 45.396362 1.209045
573 29 1 43.102805 44.091557 0.730193
574 29 2 43.239204 44.305021 0.463093
575 29 3 43.320833 44.824773 0.564385
576 29 4 43.260335 45.047713 1.169010
577 29 1 43.017928 43.724008 0.744336
578 29 2 42.951559 43.488135 1.015632
579 29 3 42.371159 43.368987 0.859691
580 29 4 41.899695 43.011143 0.586494
581 30 1 43.849799 54.812248 0.927109
582 30 2 43.770911 54.825481 1.292156
583 30 3 43.448952 55.011396 1.707216
584 30 4 43.746396 55.369882 2.167031
585 30 1 43.685297 55.096462 0.869650
586 30 2 43.992035 55.256954 0.767222
587 30 3 44.142406 55.725271 0.844140
588 30 4 44.091852 56.080906 1.416161
589 30 1 43.333271 55.015291 0.751524
590 30 2 43.182006 55.300337 0.583574
591 30 3 42.791001 55.597688 0.806372
592 30 4 42.127647 55.520874 0.643776
593 30 1 43.037170 55.120865 0.590337
594 30 2 43.419324 55.172813 0.524888
595 30 3 43.753718 55.469803 0.831406
596 30 4 44.211054 55.385050 1.292273
597 30 1 42.767365 54.891770 0.535396
598 30 2 43.109814 54.800247 0.666288
599 30 3 43.390086 54.346734 0.736214
600 30 4 44.076319 54.306161 0.813316
601 31 1 54.812248 0.000000 0.927109
602 31 2 55.137172 0.125102 1.047235
603 31 3 55.061825 0.635097 1.189941
604 31 4 55.030521 1.266246 1.028226
605 31 1 54.856099 0.230025 0.633337
606 31 2 54.621035 0.340917 0.893347
607 31 3 54.336641 -0.057414 1.101241
608 31 4 53.698509 0.031232 0.993722
609 31 1 54.994304 0.556749 0.741621
610 31 2 55.242164 0.577229 0.452923
611 31 3 55.775555 0.542010 0.454334
612 31 4 56.389201 0.757987 0.625501
613 31 1 55.059687 0.850140 0.503113
614 31 2 55.292675 0.825549 0.803457
615 31 3 55.375789 0.931937 1.289591
616 31 4 54.740116 1.045845 1.552318
617 31 1 54.965480 1.110251 0.774787
618 31 2 54.694625 0.881782 0.920114
619 31 3 54.359530 0.758091 1.335215
620 31 4 54.415060 0.333738 1.816263
621 32 1 54.812248 10.962450 0.927109
622 32 2 55.030185 10.682467 1.088458
623 32 3 54.702744 10.334702 1.234001
624 32 4 54.956504 9.696215 1.208388
625 32 1 54.603792 10.917822 1.290221
626 32 2 54.943868 10.773038 1.394182
627 32 3 55.233228 10.466365 1.606101
628 32 4 55.421716 10.154146 2.132624
629 32 1 54.408106 11.238898 1.350321
630 32 2 54.292285 11.031205 1.635647
631 32 3 54.508971 10.575964 1.565841
632 32 4 55.011434 10.621255 1.148626
633 32 1 54.048544 11.132654 1.128229
634 32 2 53.941227 11.230601 1.489138
635 32 3 53.703360 11.683972 1.627095
636 32 4 53.197019 11.956674 1.939377
637 32 1 53.968938 11.492152 0.925380
638 32 2 54.229076 11.368564 0.687801
639 32 3 54.619754 11.569474 1.021559
640 32 4 54.391124 11.606703 1.631066
641 33 1 54.812248 21.924899 0.927109
642 33 2 54.918419 21.853003 0.583553
643 33 3 55.089459 21.398972 0.481757
644 33 4 55.773891 21.385881 0.567553
645 33 1 54.588025 21.568321 0.899045
646 33 2 54.302626 21.630201 1.112456
647 33 3 54.048076 21.147669 1.260228
648 33 4 53.423089 20.958191 1.328165
649 33 1 54.340459 21.637406 1.175528
650 33 2 54.348655 21.893208 0.895535
651 33 3 54.284330 21.628593 0.436542
652 33 4 53.676866 21.379557 0.440626
653 33 1 54.332766 22.055711 1.212808
654 33 2 54.439612 22.066017 0.863440
655 33 3 54.752393 22.471769 0.921393
656 33 4 54.663335 22.990461 0.524247
657 33 1 54.092019 22.302443 1.168925
658 33 2 54.079648 22.312442 1.540008
659 33 3 53.656485 22.179378 1.797252
660 33 4 53.446940 21.540416 1.866413
661 34 1 54.812248 32.887349 0.927109
662 34 2 55.090006 33.149291 0.940349
663 34 3 54.935481 33.648024 0.876258
664 34 4 54.745658 34.060480 1.362271
665 34 1 54.936375 32.655482 1.187610
666 34 2 55.230688 32.854779 1.310083
667 34 3 55.471735 33.190127 0.982491
668 34 4 55.620997 33.798404 0.835896
669 34 1 54.902198 32.862390 1.509780
670 34 2 55.138822 32.638929 1.696061
671 34 3 55.222933 32.149588 1.774052
672 34 4 55.512185 31.567994 1.572393
673 34 1 55.011702 32.979558 1.844933
674 34 2 54.972715 33.230733 1.576078
675 34 3 54.582900 33.484718 1.925438
676 34 4 54.254053 33.167097 2.421641
677 34 1 54.812402 33.057495 2.175534
678 34 2 54.842196 32.696445 2.087115
679 34 3 54.786719 32.205889 2.317624
680 34 4 55.222010 31.737548 2.636582
681 35 1 54.812248 43.849799 0.927109
682 35 2 55.147852 44.036169 0.889706
683 35 3 55.610699 44.040704 1.053824
684 35 4 55.384560 44.055284 1.687215
685 35 1 55.151305 43.664738 1.089806
686 35 2 54.963545 43.346609 1.118437
687 35 3 54.560006 43.048714 1.283767
688 35 4 53.894763 43.123775 1.372444
689 35 1 55.296927 43.616058 0.776463
690 35 2 55.347947 43.978354 0.731115
691 35 3 54.966262 44.163400 0.931816
692 35 4 54.394890 44.447058 0.840766
693 35 1 55.530765 43.914549 0.630764
694 35 2 55.883264 43.800674 0.563972
695 35 3 56.113754 44.287353 0.539407
696 35 4 56.757547 44.189717 0.532910
697 35 1 55.577048 44.208185 0.857727
698 35 2 55.280838 44.133394 1.085284
699 35 3 55.049691 44.554879 1.375212
700 35 4 55.185008 45.197735 1.328816
701 36 1 54.812248 54.812248 0.927109
702 36 2 54.629495 55.115557 1.065424
703 36 3 54.430272 55.204930 0.601012
704 36 4 54.061111 55.770492 0.449817
705 36 1 54.745525 54.904260 0.535466
706 36 2 54.950667 55.233370 0.557265
707 36 3 55.396297 54.992695 0.568829
708 36 4 55.869909 55.056326 1.035883
709 36 1 54.567335 55.258855 0.539597
710 36 2 54.923683 55.377601 0.589986
711 36 3 55.053228 55.889476 0.558419
712 36 4 55.514647 55.988516 0.942864
713 36 1 54.173533 55.260846 0.465129
714 36 2 54.271347 55.578226 0.657915
715 36 3 54.299816 55.891772 1.052801
716 36 4 53.894826 56.061390 1.537516
717 36 1 54.250136 55.664622 0.520010
718 36 2 54.568864 55.555399 0.683777
719 36 3 54.972029 55.840449 0.928412
720 36 4 54.986901 56.453418 0.955171
721 37 6 4.593234 0.418634 8.894008
722 38 6 2.996032 2.756553 7.128711
723 39 6 5.494999 4.664700 9.637300
724 40 6 4.875443 3.224597 1.117241
725 41 6 5.195093 3.415401 6.178446
726 42 6 3.264505 0.064674 0.832237
727 43 6 1.483625 0.882753 9.552668
728 44 6 5.456909 2.241136 8.044360
729 45 6 5.961698 0.582733 8.479340
730 46 6 2.150332 9.371389 1.947805
731 47 6 2.685861 2.340853 9.668293
732 48 6 7.691798 5.444237 2.023976
733 49 6 4.027849 6.596229 1.047785
734 50 6 8.653471 7.905699 10.413322
735 51 6 6.564239 5.803577 10.878016
736 52 6 2.507987 2.871063 1.747371
737 53 6 1.694991 7.502707 1.447818
738 54 6 6.992116 3.723475 9.833612
739 55 6 7.137800 6.453702 9.484118
740 56 6 0.399648 2.494104 4.377770
741 57 6 4.034147 6.298682 9.850519
742 58 6 6.953744 8.726402 7.886702
743 59 6 3.349643 4.771800 8.450065
744 60 6 7.657136 3.475731 4.235956
745 61 6 5.774099 2.145944 9.890990
746 62 6 0.000694 6.095455 5.632185
747 63 6 1.832350 5.357712 5.509197
748 64 6 9.040400 8.312297 6.714179
749 65 6 8.187944 8.303250 2.197483
750 66 6 7.774411 7.830461 11.047182
751 67 6 7.137847 3.683834 2.639175
752 68 6 6.134370 1.979933 8.543918
753 69 6 5.396749 7.759292 4.248123
754 70 6 2.847063 8.498326 7.528008
755 71 6 3.554040 5.268086 5.095255
756 72 6 6.041363 4.855870 3.487942
757 73 6 9.205334 8.318428 8.558768
758 74 6 2.614243 1.825172 8.262856
759 75 6 7.727089 6.133311 2.715442
760 76 6 6.768987 4.916382 4.428762
761 77 6 5.534014 4.216830 7.380928
762 78 6 7.062664 9.234248 1.618498
763 79 6 5.366149 8.883343 7.469132
764 80 6 5.446634 8.014894 0.762914
765 81 6 7.448346 5.855964 6.689147
766 82 6 2.919332 5.818535 1.770849
767 83 6 4.937769 2.422046 10.412702
768 84 6 7.560995 4.442984 8.519218
769 85 6 3.615747 4.920000 2.158091
770 86 6 8.060975 7.179349 8.573007
771 87 6 0.782391 7.699765 0.556100
772 88 6 5.310264 4.583623 1.062056
773 89 6 3.962780 8.335675 7.118174
774 90 6 2.955004 7.651958 4.236538
775 91 6 8.429162 3.766715 1.258871
776 92 6 9.130681 0.667754 3.139533
777 93 6 7.245095 1.082223 6.259296
778 94 6 8.072015 5.543492 4.158410
779 95 6 7.122618 7.757584 6.636945
780 96 6 5.890710 3.029029 4.794363
781 97 6 9.319926 9.131729 0.445377
782 98 6 1.844226 2.116756 8.925490
783 99 6 1.884982 1.591471 8.636049
784 100 6 1.586811 9.183806 5.307929
785 101 6 8.443424 7.702381 2.647563
786 102 6 7.382176 3.898835 2.808251
787 103 6 0.432714 6.607558 6.440526
788 104 6 2.848709 7.825342 2.539032
789 105 6 4.178997 0.819962 4.182753
790 106 6 8.312837 4.698901 2.073085
791 107 6 2.222728 6.054527 3.403904
792 108 6 8.336198 0.569101 9.740201
793 109 6 5.843996 7.726023 4.223693
794 110 6 0.649591 1.617687 7.145461
795 111 6 0.243456 1.035339 8.811865
796 112 6 8.250277 8.044411 9.402893
797 113 6 5.215346 8.224354 7.903993
798 114 6 5.237514 3.999941 0.688084
799 115 6 0.842177 2.345936 5.367208
800 116 6 1.137336 9.118891 6.606137
801 117 6 6.957012 8.388232 2.851961