
     Program PWSCF v.7.3.1 starts on 10Jun2025 at 17:21:36 

     This program is part of the open-source Quantum ESPRESSO suite
     for quantum simulation of materials; please cite
         "P. Giannozzi et al., J. Phys.:Condens. Matter 21 395502 (2009);
         "P. Giannozzi et al., J. Phys.:Condens. Matter 29 465901 (2017);
         "P. Giannozzi et al., J. Chem. Phys. 152 154105 (2020);
          URL http://www.quantum-espresso.org", 
     in publications or presentations arising from this work. More details at
     http://www.quantum-espresso.org/quote

     Parallel version (MPI), running on     7 processors

     MPI processes distributed on     1 nodes
     55027 MiB available memory on the printing compute node when the environment starts

     Waiting for input...
     Reading input from standard input
Warning: card  &CELL ignored
Warning: card     CELL_DOFREE = '2DXY' ignored
Warning: card  / ignored

     Current dimensions of program PWSCF are:
     Max number of different atomic species (ntypx) = 10
     Max number of k-points (npk) =  40000
     Max angular momentum in pseudopotentials (lmaxx) =  4
--------------------------------------------------------------------------------
NOTICE: Bravais lattice has wrong number (10) of symmetries - symmetries are disabled
--------------------------------------------------------------------------------
     Found identity + (  0.3333 -0.0000  0.0000) symmetry
     This is a supercell, fractional translations are disabled

     R & G space division:  proc/nbgrp/npool/nimage =       7
     Subspace diagonalization in iterative solution of the eigenvalue problem:
     a serial algorithm will be used


     Parallelization info
     --------------------
     sticks:   dense  smooth     PW     G-vecs:    dense   smooth      PW
     Min        1036    1036    274               148590   148590   20271
     Max        1037    1037    275               148597   148597   20276
     Sum        7255    7255   1921              1040149  1040149  141915

     Using Slab Decomposition



     bravais-lattice index     =            0
     lattice parameter (alat)  =      18.1303  a.u.
     unit-cell volume          =   10758.9452 (a.u.)^3
     number of atoms/cell      =           27
     number of atomic types    =            3
     number of electrons       =       162.00
     number of Kohn-Sham states=           81
     kinetic-energy cutoff     =      80.0000  Ry
     charge density cutoff     =     320.0000  Ry
     scf convergence threshold =      1.0E-07
     mixing beta               =       0.7000
     number of iterations used =            8  plain     mixing
     energy convergence thresh.=      1.0E-06
     force convergence thresh. =      1.0E-05
     Exchange-correlation= SLA-PZ-NOGX-NOGC
                           (   1   1   0   0   0   0   0)
     nstep                     =           50


     celldm(1)=  18.130311  celldm(2)=   0.000000  celldm(3)=   0.000000
     celldm(4)=   0.000000  celldm(5)=   0.000000  celldm(6)=   0.000000

     crystal axes: (cart. coord. in units of alat)
               a(1) = (   1.000000   0.000000   0.000000 )  
               a(2) = (   0.500000   0.866025   0.000000 )  
               a(3) = (   0.000000   0.000000   2.084604 )  

     reciprocal axes: (cart. coord. in units 2 pi/alat)
               b(1) = (  1.000000 -0.577350  0.000000 )  
               b(2) = ( -0.000000  1.154701  0.000000 )  
               b(3) = (  0.000000  0.000000  0.479707 )  


     PseudoPot. # 1 for S  read from file:
     /cyclonas_users/asgouros/projects/PhononQE/qe_psextra/S.pz-hgh.UPF
     MD5 check sum: 38f9f902ee430b58f9df3cf2bf519617
     Pseudo is Norm-conserving, Zval =  6.0
     Generated in analytical, separable form
     Using radial grid of 1151 points,  3 beta functions with: 
                l(1) =   0
                l(2) =   0
                l(3) =   1

     PseudoPot. # 2 for Se read from file:
     /cyclonas_users/asgouros/projects/PhononQE/qe_psextra/Se.pz-hgh.UPF
     MD5 check sum: 42473bb8e8306ed0aaaa7d778fab00e5
     Pseudo is Norm-conserving, Zval =  6.0
     Generated in analytical, separable form
     Using radial grid of 1211 points,  6 beta functions with: 
                l(1) =   0
                l(2) =   0
                l(3) =   0
                l(4) =   1
                l(5) =   1
                l(6) =   2

     PseudoPot. # 3 for Mo read from file:
     /cyclonas_users/asgouros/projects/PhononQE/qe_psextra/Mo.pz-hgh.UPF
     MD5 check sum: ddacfae2313397baf1b67b06fa6affd0
     Pseudo is Norm-conserving, Zval =  6.0
     Generated in analytical, separable form
     Using radial grid of 1229 points,  6 beta functions with: 
                l(1) =   0
                l(2) =   0
                l(3) =   1
                l(4) =   1
                l(5) =   2
                l(6) =   2

     atomic species   valence    mass     pseudopotential
     S                 6.00    32.07000     S ( 1.00)
     Se                6.00    78.96000     Se( 1.00)
     Mo                6.00    95.94000     Mo( 1.00)

     No symmetry found



   Cartesian axes

     site n.     atom                  positions (alat units)
         1        Mo     tau(   1) = (  -0.0001001   0.0005096   0.0056658  )
         2        S      tau(   2) = (   0.1665665   0.0967348   0.1651669  )
         3        Se     tau(   3) = (   0.1665665   0.0967349  -0.1708329  )
         4        Mo     tau(   4) = (   0.3332332   0.0005094   0.0056658  )
         5        S      tau(   5) = (   0.4998991   0.0967348   0.1651676  )
         6        Se     tau(   6) = (   0.4998992   0.0967350  -0.1708333  )
         7        Mo     tau(   7) = (   0.6665659   0.0005095   0.0056659  )
         8        S      tau(   8) = (   0.8332334   0.0967350   0.1651672  )
         9        Se     tau(   9) = (   0.8332333   0.0967352  -0.1708331  )
        10        Mo     tau(  10) = (   0.1665662   0.2891846   0.0056658  )
        11        S      tau(  11) = (   0.3332326   0.3854092   0.1651671  )
        12        Se     tau(  12) = (   0.3332326   0.3854092  -0.1708330  )
        13        Mo     tau(  13) = (   0.4998994   0.2891844   0.0056659  )
        14        S      tau(  14) = (   0.6665662   0.3854096   0.1651672  )
        15        Se     tau(  15) = (   0.6665663   0.3854097  -0.1708327  )
        16        Mo     tau(  16) = (   0.8332331   0.2891849   0.0056660  )
        17        S      tau(  17) = (   0.9998999   0.3854097   0.1651670  )
        18        Se     tau(  18) = (   0.9998996   0.3854095  -0.1708328  )
        19        Mo     tau(  19) = (   0.3332325   0.5778594   0.0056658  )
        20        S      tau(  20) = (   0.4998996   0.6740844   0.1651670  )
        21        Se     tau(  21) = (   0.4998997   0.6740844  -0.1708330  )
        22        Mo     tau(  22) = (   0.6665666   0.5778598   0.0056660  )
        23        S      tau(  23) = (   0.8332330   0.6740846   0.1651673  )
        24        Se     tau(  24) = (   0.8332326   0.6740846  -0.1708331  )
        25        Mo     tau(  25) = (   0.9998994   0.5778600   0.0056657  )
        26        S      tau(  26) = (   1.1665659   0.6740841   0.1651674  )
        27        Se     tau(  27) = (   1.1665660   0.6740843  -0.1708335  )

     number of k points=    10
                       cart. coord. in units 2pi/alat
        k(    1) = (   0.0000000   0.0000000   0.0000000), wk =   0.1250000
        k(    2) = (  -0.0000001   0.2886753   0.0000000), wk =   0.2500000
        k(    3) = (   0.0000002  -0.5773507   0.0000000), wk =   0.1250000
        k(    4) = (   0.2500000  -0.1443376   0.0000000), wk =   0.2500000
        k(    5) = (   0.2500000   0.1443377   0.0000000), wk =   0.2500000
        k(    6) = (   0.2500002  -0.7216883   0.0000000), wk =   0.2500000
        k(    7) = (   0.2500001  -0.4330129   0.0000000), wk =   0.2500000
        k(    8) = (  -0.5000001   0.2886752   0.0000000), wk =   0.1250000
        k(    9) = (  -0.5000002   0.5773505   0.0000000), wk =   0.2500000
        k(   10) = (  -0.4999999  -0.2886755   0.0000000), wk =   0.1250000

     Dense  grid:  1040149 G-vectors     FFT dimensions: ( 108, 108, 216)

     Estimated max dynamical RAM per process >     585.91 MB

     Estimated total dynamical RAM >       4.01 GB

     Initial potential from superposition of free atoms

     starting charge     143.9937, renormalised to     162.0000

     negative rho (up, down):  1.852E-05 0.000E+00
     Starting wfcs are  243 randomized atomic wfcs

     total cpu time spent up to now is       55.4 secs

     Self-consistent Calculation

     iteration #  1     ecut=    80.00 Ry     beta= 0.70
     Davidson diagonalization with overlap
     ethr =  1.00E-02,  avg # of iterations =  2.0

     total cpu time spent up to now is      105.5 secs

     total energy              =    -493.89638325 Ry
     estimated scf accuracy    <      11.77903118 Ry

     iteration #  2     ecut=    80.00 Ry     beta= 0.70
     Davidson diagonalization with overlap
     ethr =  7.27E-03,  avg # of iterations = 12.7

     total cpu time spent up to now is      242.0 secs

     total energy              =    -488.24780876 Ry
     estimated scf accuracy    <     121.90695900 Ry

     iteration #  3     ecut=    80.00 Ry     beta= 0.70
     Davidson diagonalization with overlap
     ethr =  7.27E-03,  avg # of iterations =  6.4

     total cpu time spent up to now is      368.1 secs

     total energy              =    -500.05336669 Ry
     estimated scf accuracy    <       4.74527928 Ry

     iteration #  4     ecut=    80.00 Ry     beta= 0.70
     Davidson diagonalization with overlap
     ethr =  2.93E-03,  avg # of iterations =  7.6

     total cpu time spent up to now is      472.8 secs

     total energy              =    -501.49922035 Ry
     estimated scf accuracy    <       0.33148832 Ry

     iteration #  5     ecut=    80.00 Ry     beta= 0.70
     Davidson diagonalization with overlap
     ethr =  2.05E-04,  avg # of iterations =  7.0

     total cpu time spent up to now is      597.4 secs

     total energy              =    -501.64001843 Ry
     estimated scf accuracy    <       0.41696944 Ry

     iteration #  6     ecut=    80.00 Ry     beta= 0.70
     Davidson diagonalization with overlap
     ethr =  2.05E-04,  avg # of iterations =  3.0

     total cpu time spent up to now is      681.8 secs

     total energy              =    -501.66541208 Ry
     estimated scf accuracy    <       0.09359164 Ry

     iteration #  7     ecut=    80.00 Ry     beta= 0.70
     Davidson diagonalization with overlap
     ethr =  5.78E-05,  avg # of iterations =  4.7

     total cpu time spent up to now is      782.2 secs

     total energy              =    -501.68544010 Ry
     estimated scf accuracy    <       0.01955851 Ry

     iteration #  8     ecut=    80.00 Ry     beta= 0.70
     Davidson diagonalization with overlap
     ethr =  1.21E-05,  avg # of iterations =  6.6

     total cpu time spent up to now is      896.9 secs

     total energy              =    -501.69131818 Ry
     estimated scf accuracy    <       0.02994486 Ry

     iteration #  9     ecut=    80.00 Ry     beta= 0.70
     Davidson diagonalization with overlap
     ethr =  1.21E-05,  avg # of iterations =  2.4

     negative rho (up, down):  7.275E-06 0.000E+00

     total cpu time spent up to now is      969.3 secs

     total energy              =    -501.68522571 Ry
     estimated scf accuracy    <       0.02655832 Ry

     iteration # 10     ecut=    80.00 Ry     beta= 0.70
     Davidson diagonalization with overlap
     ethr =  1.21E-05,  avg # of iterations =  3.0

     total cpu time spent up to now is     1056.7 secs

     total energy              =    -501.68668887 Ry
     estimated scf accuracy    <       0.00455671 Ry

     iteration # 11     ecut=    80.00 Ry     beta= 0.70
     Davidson diagonalization with overlap
     ethr =  2.81E-06,  avg # of iterations =  6.1

     total cpu time spent up to now is     1172.1 secs

     total energy              =    -501.68830555 Ry
     estimated scf accuracy    <       0.00246651 Ry

     iteration # 12     ecut=    80.00 Ry     beta= 0.70
     Davidson diagonalization with overlap
     ethr =  1.52E-06,  avg # of iterations =  4.7

     total cpu time spent up to now is     1259.3 secs

     total energy              =    -501.68811529 Ry
     estimated scf accuracy    <       0.00181990 Ry

     iteration # 13     ecut=    80.00 Ry     beta= 0.70
     Davidson diagonalization with overlap
     ethr =  1.12E-06,  avg # of iterations =  3.3

     total cpu time spent up to now is     1341.3 secs

     total energy              =    -501.68826964 Ry
     estimated scf accuracy    <       0.00029812 Ry

     iteration # 14     ecut=    80.00 Ry     beta= 0.70
     Davidson diagonalization with overlap
     ethr =  1.84E-07,  avg # of iterations =  6.0

     total cpu time spent up to now is     1454.1 secs

     total energy              =    -501.68837298 Ry
     estimated scf accuracy    <       0.00003614 Ry

     iteration # 15     ecut=    80.00 Ry     beta= 0.70
     Davidson diagonalization with overlap
     ethr =  2.23E-08,  avg # of iterations =  7.4

     total cpu time spent up to now is     1579.5 secs

     total energy              =    -501.68838350 Ry
     estimated scf accuracy    <       0.00004095 Ry

     iteration # 16     ecut=    80.00 Ry     beta= 0.70
     Davidson diagonalization with overlap
     ethr =  2.23E-08,  avg # of iterations =  2.8

     total cpu time spent up to now is     1661.2 secs

     total energy              =    -501.68838443 Ry
     estimated scf accuracy    <       0.00001468 Ry

     iteration # 17     ecut=    80.00 Ry     beta= 0.70
     Davidson diagonalization with overlap
     ethr =  9.06E-09,  avg # of iterations =  5.7

     total cpu time spent up to now is     1755.6 secs

     total energy              =    -501.68838629 Ry
     estimated scf accuracy    <       0.00000462 Ry

     iteration # 18     ecut=    80.00 Ry     beta= 0.70
     Davidson diagonalization with overlap
     ethr =  2.85E-09,  avg # of iterations =  5.9

     total cpu time spent up to now is     1848.1 secs

     total energy              =    -501.68838681 Ry
     estimated scf accuracy    <       0.00000114 Ry

     iteration # 19     ecut=    80.00 Ry     beta= 0.70
     Davidson diagonalization with overlap
     ethr =  7.03E-10,  avg # of iterations =  6.0

     total cpu time spent up to now is     1959.8 secs

     total energy              =    -501.68838722 Ry
     estimated scf accuracy    <       0.00000025 Ry

     iteration # 20     ecut=    80.00 Ry     beta= 0.70
     Davidson diagonalization with overlap
     ethr =  1.52E-10,  avg # of iterations =  6.5

     total cpu time spent up to now is     2072.6 secs

     total energy              =    -501.68838726 Ry
     estimated scf accuracy    <       0.00000043 Ry

     iteration # 21     ecut=    80.00 Ry     beta= 0.70
     Davidson diagonalization with overlap
     ethr =  1.52E-10,  avg # of iterations =  2.5

     total cpu time spent up to now is     2148.3 secs

     total energy              =    -501.68838722 Ry
     estimated scf accuracy    <       0.00000033 Ry

     iteration # 22     ecut=    80.00 Ry     beta= 0.70
     Davidson diagonalization with overlap
     ethr =  1.52E-10,  avg # of iterations =  2.0

     total cpu time spent up to now is     2224.4 secs

     total energy              =    -501.68838722 Ry
     estimated scf accuracy    <       0.00000013 Ry

     iteration # 23     ecut=    80.00 Ry     beta= 0.70
     Davidson diagonalization with overlap
     ethr =  7.99E-11,  avg # of iterations =  4.8

     total cpu time spent up to now is     2311.7 secs

     End of self-consistent calculation

          k = 0.0000 0.0000 0.0000 (130055 PWs)   bands (ev):

   -15.8474 -14.5082 -14.5082 -14.5082 -14.5082 -14.5082 -14.5081 -14.4793
   -13.7242 -13.7242 -13.7242 -13.7242 -13.7242 -13.7241 -13.6132 -13.6132
   -13.2045 -13.2045  -7.0107  -6.7313  -6.7313  -6.5650  -6.5650  -6.5650
    -6.5650  -6.5650  -6.5650  -6.0781  -6.0781  -5.6280  -5.6280  -5.6280
    -5.6280  -5.6280  -5.6280  -5.5309  -5.5309  -5.2559  -5.2559  -5.2559
    -5.2559  -5.2559  -5.2559  -4.8708  -4.8708  -4.3949  -4.3949  -4.0498
    -4.0498  -4.0498  -4.0497  -4.0497  -4.0497  -3.8312  -3.8312  -3.5023
    -3.5023  -3.3565  -3.0912  -3.0912  -3.0912  -3.0912  -3.0911  -3.0911
    -2.5248  -2.5248  -2.3887  -2.3887  -2.3887  -2.3886  -2.3886  -2.3886
    -2.3365  -2.3365  -2.3365  -2.3365  -2.3365  -2.3365  -1.4901  -1.3533
    -1.3533

          k =-0.0000 0.2887 0.0000 (129977 PWs)   bands (ev):

   -15.7461 -15.0151 -14.7057 -14.7056 -14.4204 -14.2254 -14.2254 -14.0750
   -14.0033 -13.8299 -13.8299 -13.6988 -13.6988 -13.5682 -13.5682 -13.4928
   -13.2580 -13.2580  -7.0685  -6.8901  -6.7660  -6.7660  -6.6391  -6.6391
    -6.4300  -6.4300  -6.3274  -6.3274  -6.3034  -6.1435  -5.9274  -5.9274
    -5.3463  -5.3463  -5.3165  -5.2378  -5.2378  -5.2152  -5.1809  -5.1809
    -5.1291  -5.1291  -4.8105  -4.6029  -4.6029  -4.4844  -4.4844  -4.3696
    -4.3696  -4.2819  -4.2002  -4.2002  -4.1028  -3.7398  -3.7242  -3.5704
    -3.3430  -3.3430  -3.2495  -3.0677  -3.0677  -2.9010  -2.9009  -2.8431
    -2.8431  -2.8004  -2.7811  -2.7555  -2.7554  -2.6724  -2.4464  -2.1929
    -2.0922  -2.0885  -2.0885  -2.0775  -1.9621  -1.9621  -1.5154  -1.5154
    -1.5085

          k = 0.0000-0.5774 0.0000 (130074 PWs)   bands (ev):

   -15.4549 -15.4549 -14.7760 -14.7760 -14.2525 -14.2525 -13.9270 -13.9270
   -13.9270 -13.9270 -13.8986 -13.8670 -13.8670 -13.3996 -13.3962 -13.3962
   -13.3962 -13.3962  -7.2981  -6.7763  -6.7763  -6.7763  -6.7763  -6.5763
    -6.5763  -6.3331  -6.2599  -6.2599  -6.2599  -6.2599  -6.2228  -6.2228
    -5.3661  -5.2359  -5.2359  -5.1695  -5.1694  -5.1694  -5.1694  -4.9123
    -4.9123  -4.6764  -4.6764  -4.5687  -4.5687  -4.5687  -4.5687  -4.4644
    -4.4644  -4.3635  -4.1052  -4.1052  -3.6879  -3.6878  -3.6878  -3.6878
    -3.5644  -3.5644  -3.2991  -3.1593  -3.1593  -3.1068  -3.1068  -3.1068
    -3.1068  -2.9334  -2.9334  -2.5245  -2.5245  -2.4983  -2.4983  -2.0336
    -1.9904  -1.9739  -1.9739  -1.7518  -1.7518  -1.7518  -1.7517  -1.6809
    -1.6808

          k = 0.2500-0.1443 0.0000 (129977 PWs)   bands (ev):

   -15.7461 -15.0151 -14.7057 -14.7056 -14.4204 -14.2254 -14.2254 -14.0750
   -14.0033 -13.8299 -13.8299 -13.6988 -13.6988 -13.5682 -13.5682 -13.4928
   -13.2580 -13.2580  -7.0685  -6.8901  -6.7660  -6.7660  -6.6391  -6.6391
    -6.4300  -6.4300  -6.3274  -6.3274  -6.3034  -6.1435  -5.9274  -5.9274
    -5.3463  -5.3463  -5.3165  -5.2378  -5.2378  -5.2152  -5.1809  -5.1809
    -5.1291  -5.1291  -4.8105  -4.6029  -4.6029  -4.4844  -4.4844  -4.3696
    -4.3696  -4.2819  -4.2002  -4.2002  -4.1028  -3.7398  -3.7242  -3.5704
    -3.3430  -3.3430  -3.2495  -3.0677  -3.0677  -2.9010  -2.9009  -2.8431
    -2.8431  -2.8004  -2.7811  -2.7555  -2.7554  -2.6724  -2.4464  -2.1930
    -2.0922  -2.0885  -2.0885  -2.0775  -1.9621  -1.9621  -1.5154  -1.5154
    -1.5085

          k = 0.2500 0.1443 0.0000 (129977 PWs)   bands (ev):

   -15.7461 -15.0151 -14.7057 -14.7056 -14.4204 -14.2254 -14.2254 -14.0750
   -14.0033 -13.8299 -13.8299 -13.6988 -13.6988 -13.5682 -13.5682 -13.4928
   -13.2580 -13.2580  -7.0685  -6.8901  -6.7660  -6.7660  -6.6391  -6.6391
    -6.4300  -6.4300  -6.3274  -6.3274  -6.3034  -6.1435  -5.9274  -5.9274
    -5.3463  -5.3463  -5.3165  -5.2378  -5.2378  -5.2152  -5.1809  -5.1809
    -5.1291  -5.1291  -4.8105  -4.6029  -4.6029  -4.4844  -4.4844  -4.3696
    -4.3696  -4.2819  -4.2002  -4.2002  -4.1028  -3.7398  -3.7242  -3.5704
    -3.3430  -3.3430  -3.2495  -3.0677  -3.0677  -2.9010  -2.9009  -2.8431
    -2.8431  -2.8004  -2.7811  -2.7555  -2.7554  -2.6724  -2.4464  -2.1930
    -2.0922  -2.0885  -2.0885  -2.0775  -1.9621  -1.9620  -1.5154  -1.5154
    -1.5085

          k = 0.2500-0.7217 0.0000 (130016 PWs)   bands (ev):

   -15.5497 -15.1832 -15.1831 -14.3137 -14.3137 -14.3069 -14.0974 -14.0973
   -13.9364 -13.9081 -13.9081 -13.7724 -13.6093 -13.6093 -13.3985 -13.3985
   -13.3950 -13.3109  -7.1438  -7.1438  -6.9222  -6.6699  -6.5455  -6.4622
    -6.4622  -6.4527  -6.3454  -6.3454  -6.3108  -6.3108  -6.2337  -5.6939
    -5.6938  -5.3205  -5.3205  -5.2715  -5.1130  -5.1130  -5.0270  -5.0270
    -4.9580  -4.6413  -4.6091  -4.6091  -4.5021  -4.5020  -4.4499  -4.4499
    -4.4238  -4.4238  -4.2964  -3.9169  -3.8571  -3.8571  -3.6904  -3.6136
    -3.5397  -3.5397  -3.2825  -3.2559  -3.2559  -3.0482  -3.0482  -3.0195
    -3.0022  -2.7507  -2.7507  -2.7244  -2.7244  -2.4513  -2.4513  -2.3475
    -1.9594  -1.9594  -1.8543  -1.8542  -1.7889  -1.7465  -1.7464  -1.5939
    -1.5917

          k = 0.2500-0.4330 0.0000 (130016 PWs)   bands (ev):

   -15.5497 -15.1832 -15.1831 -14.3137 -14.3137 -14.3069 -14.0974 -14.0973
   -13.9364 -13.9081 -13.9081 -13.7724 -13.6093 -13.6093 -13.3985 -13.3985
   -13.3950 -13.3109  -7.1438  -7.1438  -6.9222  -6.6699  -6.5455  -6.4622
    -6.4622  -6.4527  -6.3454  -6.3454  -6.3108  -6.3108  -6.2337  -5.6939
    -5.6938  -5.3205  -5.3205  -5.2715  -5.1130  -5.1130  -5.0270  -5.0270
    -4.9580  -4.6413  -4.6091  -4.6091  -4.5021  -4.5020  -4.4499  -4.4499
    -4.4238  -4.4238  -4.2964  -3.9169  -3.8571  -3.8571  -3.6904  -3.6136
    -3.5397  -3.5397  -3.2825  -3.2559  -3.2559  -3.0482  -3.0482  -3.0195
    -3.0022  -2.7507  -2.7507  -2.7244  -2.7244  -2.4513  -2.4513  -2.3475
    -1.9594  -1.9594  -1.8543  -1.8542  -1.7889  -1.7465  -1.7464  -1.5939
    -1.5917

          k =-0.5000 0.2887 0.0000 (130074 PWs)   bands (ev):

   -15.4549 -15.4549 -14.7760 -14.7760 -14.2525 -14.2525 -13.9271 -13.9270
   -13.9270 -13.9270 -13.8986 -13.8670 -13.8670 -13.3996 -13.3962 -13.3962
   -13.3962 -13.3962  -7.2981  -6.7763  -6.7763  -6.7763  -6.7763  -6.5763
    -6.5763  -6.3331  -6.2599  -6.2599  -6.2599  -6.2599  -6.2228  -6.2228
    -5.3661  -5.2359  -5.2359  -5.1695  -5.1695  -5.1694  -5.1694  -4.9123
    -4.9123  -4.6764  -4.6764  -4.5687  -4.5687  -4.5687  -4.5687  -4.4644
    -4.4644  -4.3635  -4.1052  -4.1052  -3.6879  -3.6878  -3.6878  -3.6878
    -3.5644  -3.5644  -3.2991  -3.1593  -3.1593  -3.1068  -3.1068  -3.1068
    -3.1068  -2.9334  -2.9334  -2.5245  -2.5245  -2.4983  -2.4983  -2.0336
    -1.9904  -1.9739  -1.9739  -1.7518  -1.7518  -1.7517  -1.7517  -1.6809
    -1.6808

          k =-0.5000 0.5774 0.0000 (130016 PWs)   bands (ev):

   -15.5497 -15.1832 -15.1831 -14.3137 -14.3137 -14.3069 -14.0974 -14.0973
   -13.9364 -13.9081 -13.9081 -13.7724 -13.6093 -13.6093 -13.3985 -13.3985
   -13.3950 -13.3109  -7.1438  -7.1438  -6.9222  -6.6699  -6.5455  -6.4622
    -6.4622  -6.4527  -6.3454  -6.3454  -6.3108  -6.3108  -6.2337  -5.6939
    -5.6938  -5.3205  -5.3205  -5.2715  -5.1130  -5.1130  -5.0270  -5.0270
    -4.9580  -4.6413  -4.6091  -4.6091  -4.5021  -4.5020  -4.4499  -4.4499
    -4.4238  -4.4238  -4.2964  -3.9169  -3.8571  -3.8571  -3.6904  -3.6136
    -3.5397  -3.5397  -3.2825  -3.2559  -3.2559  -3.0482  -3.0482  -3.0195
    -3.0022  -2.7507  -2.7507  -2.7244  -2.7244  -2.4513  -2.4513  -2.3475
    -1.9594  -1.9594  -1.8543  -1.8542  -1.7889  -1.7465  -1.7464  -1.5939
    -1.5917

          k =-0.5000-0.2887 0.0000 (130074 PWs)   bands (ev):

   -15.4549 -15.4549 -14.7760 -14.7760 -14.2525 -14.2525 -13.9271 -13.9270
   -13.9270 -13.9270 -13.8986 -13.8670 -13.8670 -13.3996 -13.3963 -13.3962
   -13.3962 -13.3962  -7.2981  -6.7763  -6.7763  -6.7763  -6.7763  -6.5763
    -6.5763  -6.3331  -6.2599  -6.2599  -6.2599  -6.2599  -6.2228  -6.2228
    -5.3661  -5.2359  -5.2359  -5.1695  -5.1694  -5.1694  -5.1694  -4.9123
    -4.9123  -4.6764  -4.6764  -4.5687  -4.5687  -4.5687  -4.5687  -4.4644
    -4.4644  -4.3635  -4.1052  -4.1052  -3.6879  -3.6878  -3.6878  -3.6878
    -3.5644  -3.5644  -3.2991  -3.1593  -3.1593  -3.1068  -3.1068  -3.1068
    -3.1068  -2.9334  -2.9334  -2.5245  -2.5245  -2.4983  -2.4983  -2.0336
    -1.9904  -1.9739  -1.9739  -1.7518  -1.7518  -1.7518  -1.7517  -1.6809
    -1.6808

     highest occupied level (ev):    -1.3533

!    total energy              =    -501.68838721 Ry
     estimated scf accuracy    <       0.00000003 Ry

     The total energy is the sum of the following terms:
     one-electron contribution =   -4001.40596624 Ry
     hartree contribution      =    2037.96015238 Ry
     xc contribution           =    -115.45351928 Ry
     ewald contribution        =    1577.21094593 Ry

     convergence has been achieved in  23 iterations

     Forces acting on atoms (cartesian axes, Ry/au):

     atom    1 type  3   force =    -0.00000057   -0.00000179    0.00000904
     atom    2 type  1   force =     0.00000509   -0.00000609    0.00001703
     atom    3 type  2   force =     0.00000537   -0.00000573   -0.00002751
     atom    4 type  3   force =    -0.00000254    0.00000226    0.00000680
     atom    5 type  1   force =     0.00000135   -0.00000385    0.00001021
     atom    6 type  2   force =     0.00000100   -0.00000368   -0.00001867
     atom    7 type  3   force =     0.00000157    0.00000101    0.00001066
     atom    8 type  1   force =    -0.00000641   -0.00000405    0.00001608
     atom    9 type  2   force =    -0.00000625   -0.00000331   -0.00002466
     atom   10 type  3   force =     0.00000246    0.00000145    0.00000966
     atom   11 type  1   force =     0.00000508    0.00000681    0.00001359
     atom   12 type  2   force =     0.00000455    0.00000664   -0.00002322
     atom   13 type  3   force =    -0.00000029    0.00000264    0.00000895
     atom   14 type  1   force =    -0.00000224    0.00000101    0.00001246
     atom   15 type  2   force =    -0.00000116    0.00000083   -0.00002182
     atom   16 type  3   force =    -0.00000228   -0.00000233    0.00000704
     atom   17 type  1   force =    -0.00000288    0.00000713    0.00001744
     atom   18 type  2   force =    -0.00000237    0.00000728   -0.00002754
     atom   19 type  3   force =     0.00000159   -0.00000188    0.00000873
     atom   20 type  1   force =    -0.00000379   -0.00000419    0.00001249
     atom   21 type  2   force =    -0.00000330   -0.00000371   -0.00002051
     atom   22 type  3   force =    -0.00000384   -0.00000119    0.00000829
     atom   23 type  1   force =     0.00000311    0.00000252    0.00001178
     atom   24 type  2   force =     0.00000321    0.00000227   -0.00001926
     atom   25 type  3   force =     0.00000205   -0.00000217    0.00000911
     atom   26 type  1   force =     0.00000131    0.00000150    0.00001074
     atom   27 type  2   force =     0.00000020    0.00000062   -0.00001693

     Total force =     0.000088     Total SCF correction =     0.000328
     SCF correction compared to forces is large: reduce conv_thr to get better values


     Computing stress (Cartesian axis) and pressure

          total   stress  (Ry/bohr**3)                   (kbar)     P=       -0.04
   0.00000095  -0.00000000   0.00000000            0.14       -0.00        0.00
  -0.00000000   0.00000095   0.00000000           -0.00        0.14        0.00
   0.00000000   0.00000000  -0.00000269            0.00        0.00       -0.40


     BFGS Geometry Optimization
     Energy error            =      0.0E+00 Ry
     Gradient error          =      2.8E-05 Ry/Bohr

     number of scf cycles    =   1
     number of bfgs steps    =   0

     energy             new  =    -501.6883872126 Ry

     new trust radius        =       0.0000286125 bohr
     new conv_thr            =       0.0000001000 Ry


ATOMIC_POSITIONS (angstrom)
Mo              -0.0009611255        0.0048879741        0.0543634024
S                1.5980658735        0.9280849949        1.5846447650
Se               1.5980659109        0.9280857164       -1.6390106077
Mo               3.1970874965        0.0048882346        0.0543625961
S                4.7961066508        0.9280860101        1.5846478239
Se               4.7961069743        0.9280874859       -1.6390101978
Mo               6.3951326438        0.0048885569        0.0543648749
S                7.9941605418        0.9280874967        1.5846465799
Se               7.9941595981        0.9280897640       -1.6390105149
Mo               1.5980620608        2.7744803870        0.0543637553
S                3.1970851452        3.6976758942        1.5846448894
Se               3.1970855319        3.6976761028       -1.6390090881
Mo               4.7961079399        2.7744792063        0.0543638141
S                6.3951334324        3.6976772475        1.5846448416
Se               6.3951343805        3.6976778394       -1.6390052612
Mo               7.9941595552        2.7744812017        0.0543645488
S                9.5931850491        3.6976807859        1.5846458079
Se               9.5931831740        3.6976796419       -1.6390097896
Mo               3.1970822345        5.5440671096        0.0543627563
S                4.7961087163        6.4672626171        1.5846427023
Se               4.7961094493        6.4672628176       -1.6390074093
Mo               6.3951358501        5.5440712551        0.0543647418
S                7.9941613728        6.4672678373        1.5846456720
Se               7.9941583746        6.4672679129       -1.6390082001
Mo               9.5931827947        5.5440724026        0.0543626612
S               11.1922054032        6.4672631578        1.5846457562
Se              11.1922060234        6.4672648965       -1.6390109182



     Writing config-only to output data dir /scratch/asgouros/train_MoSSe_defT_3x3//def_0.000_0.000_0.000/def_0.000_0.000_0.000.save/ :
     XML data file
     NEW-OLD atomic charge density approx. for the potential

     total cpu time spent up to now is     2507.3 secs

     Self-consistent Calculation

     iteration #  1     ecut=    80.00 Ry     beta= 0.70
     Davidson diagonalization with overlap
     ethr =  1.00E-06,  avg # of iterations =  2.0

     Threshold (ethr) on eigenvalues was too large:
     Diagonalizing with lowered threshold

     Davidson diagonalization with overlap
     ethr =  7.84E-11,  avg # of iterations =  5.9

     total cpu time spent up to now is     2708.2 secs

     total energy              =    -501.68838682 Ry
     estimated scf accuracy    <       0.00000062 Ry

     iteration #  2     ecut=    80.00 Ry     beta= 0.70
     Davidson diagonalization with overlap
     ethr =  3.84E-10,  avg # of iterations =  7.4

     total cpu time spent up to now is     2870.7 secs

     total energy              =    -501.68838629 Ry
     estimated scf accuracy    <       0.00000841 Ry

     iteration #  3     ecut=    80.00 Ry     beta= 0.70
     Davidson diagonalization with overlap
     ethr =  3.84E-10,  avg # of iterations =  7.3

     total cpu time spent up to now is     3018.0 secs

     total energy              =    -501.68838720 Ry
     estimated scf accuracy    <       0.00000020 Ry

     iteration #  4     ecut=    80.00 Ry     beta= 0.70
     Davidson diagonalization with overlap
     ethr =  1.22E-10,  avg # of iterations =  4.1

     total cpu time spent up to now is     3110.7 secs

     End of self-consistent calculation

          k = 0.0000 0.0000 0.0000 (130055 PWs)   bands (ev):

   -15.8473 -14.5081 -14.5081 -14.5081 -14.5081 -14.5081 -14.5081 -14.4793
   -13.7242 -13.7242 -13.7242 -13.7242 -13.7242 -13.7242 -13.6131 -13.6131
   -13.2045 -13.2045  -7.0108  -6.7313  -6.7313  -6.5650  -6.5650  -6.5650
    -6.5650  -6.5650  -6.5650  -6.0781  -6.0781  -5.6280  -5.6280  -5.6280
    -5.6280  -5.6280  -5.6280  -5.5309  -5.5309  -5.2559  -5.2559  -5.2559
    -5.2559  -5.2559  -5.2559  -4.8708  -4.8708  -4.3949  -4.3949  -4.0498
    -4.0498  -4.0498  -4.0498  -4.0498  -4.0498  -3.8313  -3.8312  -3.5024
    -3.5024  -3.3566  -3.0912  -3.0912  -3.0912  -3.0912  -3.0912  -3.0912
    -2.5248  -2.5248  -2.3887  -2.3887  -2.3887  -2.3886  -2.3886  -2.3886
    -2.3366  -2.3366  -2.3365  -2.3365  -2.3365  -2.3365  -1.4901  -1.3534
    -1.3534

          k =-0.0000 0.2887 0.0000 (129977 PWs)   bands (ev):

   -15.7460 -15.0150 -14.7056 -14.7056 -14.4205 -14.2253 -14.2253 -14.0749
   -14.0033 -13.8299 -13.8299 -13.6987 -13.6987 -13.5683 -13.5683 -13.4928
   -13.2581 -13.2581  -7.0685  -6.8901  -6.7660  -6.7660  -6.6390  -6.6390
    -6.4300  -6.4300  -6.3274  -6.3274  -6.3034  -6.1435  -5.9274  -5.9274
    -5.3463  -5.3463  -5.3165  -5.2378  -5.2378  -5.2152  -5.1809  -5.1809
    -5.1291  -5.1291  -4.8105  -4.6029  -4.6029  -4.4844  -4.4844  -4.3696
    -4.3696  -4.2819  -4.2002  -4.2002  -4.1029  -3.7399  -3.7242  -3.5704
    -3.3430  -3.3430  -3.2496  -3.0677  -3.0677  -2.9010  -2.9010  -2.8431
    -2.8431  -2.8004  -2.7811  -2.7555  -2.7555  -2.6725  -2.4464  -2.1930
    -2.0922  -2.0885  -2.0885  -2.0776  -1.9621  -1.9621  -1.5155  -1.5155
    -1.5086

          k = 0.0000-0.5774 0.0000 (130074 PWs)   bands (ev):

   -15.4548 -15.4548 -14.7760 -14.7760 -14.2526 -14.2526 -13.9270 -13.9270
   -13.9270 -13.9270 -13.8986 -13.8671 -13.8671 -13.3996 -13.3963 -13.3963
   -13.3963 -13.3963  -7.2981  -6.7763  -6.7763  -6.7763  -6.7763  -6.5763
    -6.5763  -6.3331  -6.2599  -6.2599  -6.2599  -6.2599  -6.2228  -6.2228
    -5.3661  -5.2359  -5.2359  -5.1695  -5.1695  -5.1695  -5.1695  -4.9123
    -4.9123  -4.6764  -4.6764  -4.5687  -4.5687  -4.5687  -4.5687  -4.4645
    -4.4645  -4.3636  -4.1052  -4.1052  -3.6879  -3.6879  -3.6879  -3.6878
    -3.5645  -3.5645  -3.2992  -3.1593  -3.1593  -3.1069  -3.1069  -3.1068
    -3.1068  -2.9334  -2.9334  -2.5245  -2.5245  -2.4984  -2.4984  -2.0336
    -1.9904  -1.9740  -1.9740  -1.7518  -1.7518  -1.7518  -1.7518  -1.6809
    -1.6809

          k = 0.2500-0.1443 0.0000 (129977 PWs)   bands (ev):

   -15.7460 -15.0150 -14.7056 -14.7056 -14.4205 -14.2253 -14.2253 -14.0749
   -14.0033 -13.8299 -13.8299 -13.6987 -13.6987 -13.5683 -13.5683 -13.4928
   -13.2581 -13.2581  -7.0685  -6.8901  -6.7660  -6.7660  -6.6390  -6.6390
    -6.4300  -6.4300  -6.3274  -6.3274  -6.3034  -6.1435  -5.9274  -5.9274
    -5.3463  -5.3463  -5.3165  -5.2378  -5.2378  -5.2152  -5.1809  -5.1809
    -5.1291  -5.1291  -4.8105  -4.6029  -4.6029  -4.4844  -4.4844  -4.3696
    -4.3696  -4.2819  -4.2002  -4.2002  -4.1029  -3.7399  -3.7242  -3.5704
    -3.3430  -3.3430  -3.2496  -3.0677  -3.0677  -2.9010  -2.9010  -2.8431
    -2.8431  -2.8004  -2.7811  -2.7555  -2.7555  -2.6725  -2.4465  -2.1930
    -2.0922  -2.0885  -2.0885  -2.0776  -1.9621  -1.9621  -1.5155  -1.5155
    -1.5086

          k = 0.2500 0.1443 0.0000 (129977 PWs)   bands (ev):

   -15.7460 -15.0150 -14.7056 -14.7056 -14.4205 -14.2253 -14.2253 -14.0749
   -14.0033 -13.8299 -13.8299 -13.6987 -13.6987 -13.5683 -13.5683 -13.4928
   -13.2581 -13.2581  -7.0685  -6.8901  -6.7660  -6.7660  -6.6390  -6.6390
    -6.4300  -6.4300  -6.3274  -6.3274  -6.3034  -6.1435  -5.9274  -5.9274
    -5.3463  -5.3463  -5.3165  -5.2378  -5.2378  -5.2152  -5.1809  -5.1809
    -5.1291  -5.1291  -4.8105  -4.6029  -4.6029  -4.4844  -4.4844  -4.3696
    -4.3696  -4.2819  -4.2002  -4.2002  -4.1029  -3.7399  -3.7242  -3.5704
    -3.3430  -3.3430  -3.2496  -3.0677  -3.0677  -2.9010  -2.9010  -2.8431
    -2.8431  -2.8004  -2.7811  -2.7555  -2.7555  -2.6725  -2.4465  -2.1930
    -2.0922  -2.0885  -2.0885  -2.0776  -1.9621  -1.9621  -1.5155  -1.5155
    -1.5086

          k = 0.2500-0.7217 0.0000 (130016 PWs)   bands (ev):

   -15.5497 -15.1831 -15.1831 -14.3137 -14.3137 -14.3070 -14.0974 -14.0974
   -13.9364 -13.9081 -13.9081 -13.7723 -13.6093 -13.6093 -13.3986 -13.3985
   -13.3950 -13.3110  -7.1438  -7.1438  -6.9222  -6.6699  -6.5455  -6.4622
    -6.4622  -6.4527  -6.3454  -6.3454  -6.3108  -6.3108  -6.2337  -5.6939
    -5.6939  -5.3206  -5.3206  -5.2715  -5.1130  -5.1130  -5.0270  -5.0270
    -4.9580  -4.6414  -4.6091  -4.6091  -4.5022  -4.5021  -4.4499  -4.4499
    -4.4238  -4.4238  -4.2964  -3.9169  -3.8571  -3.8571  -3.6904  -3.6137
    -3.5397  -3.5397  -3.2825  -3.2559  -3.2559  -3.0482  -3.0482  -3.0195
    -3.0022  -2.7507  -2.7507  -2.7244  -2.7244  -2.4513  -2.4513  -2.3476
    -1.9594  -1.9594  -1.8543  -1.8543  -1.7890  -1.7465  -1.7465  -1.5940
    -1.5918

          k = 0.2500-0.4330 0.0000 (130016 PWs)   bands (ev):

   -15.5497 -15.1831 -15.1831 -14.3137 -14.3137 -14.3070 -14.0974 -14.0974
   -13.9364 -13.9081 -13.9081 -13.7723 -13.6093 -13.6093 -13.3986 -13.3986
   -13.3950 -13.3110  -7.1438  -7.1438  -6.9222  -6.6699  -6.5455  -6.4622
    -6.4622  -6.4527  -6.3454  -6.3454  -6.3108  -6.3108  -6.2337  -5.6939
    -5.6939  -5.3206  -5.3206  -5.2715  -5.1130  -5.1130  -5.0270  -5.0270
    -4.9580  -4.6414  -4.6091  -4.6091  -4.5022  -4.5021  -4.4499  -4.4499
    -4.4238  -4.4238  -4.2964  -3.9169  -3.8571  -3.8571  -3.6904  -3.6137
    -3.5397  -3.5397  -3.2825  -3.2559  -3.2559  -3.0482  -3.0482  -3.0195
    -3.0022  -2.7507  -2.7507  -2.7244  -2.7244  -2.4513  -2.4513  -2.3476
    -1.9594  -1.9594  -1.8543  -1.8543  -1.7890  -1.7465  -1.7465  -1.5940
    -1.5918

          k =-0.5000 0.2887 0.0000 (130074 PWs)   bands (ev):

   -15.4548 -15.4548 -14.7760 -14.7760 -14.2526 -14.2526 -13.9270 -13.9270
   -13.9270 -13.9270 -13.8986 -13.8671 -13.8671 -13.3996 -13.3963 -13.3963
   -13.3963 -13.3962  -7.2981  -6.7763  -6.7763  -6.7763  -6.7763  -6.5763
    -6.5763  -6.3331  -6.2599  -6.2599  -6.2599  -6.2599  -6.2228  -6.2228
    -5.3661  -5.2359  -5.2359  -5.1695  -5.1695  -5.1695  -5.1694  -4.9123
    -4.9123  -4.6764  -4.6764  -4.5687  -4.5687  -4.5687  -4.5687  -4.4645
    -4.4645  -4.3636  -4.1052  -4.1052  -3.6879  -3.6879  -3.6879  -3.6879
    -3.5645  -3.5644  -3.2992  -3.1593  -3.1593  -3.1069  -3.1069  -3.1068
    -3.1068  -2.9334  -2.9334  -2.5245  -2.5245  -2.4984  -2.4984  -2.0336
    -1.9904  -1.9740  -1.9740  -1.7518  -1.7518  -1.7518  -1.7518  -1.6809
    -1.6809

          k =-0.5000 0.5774 0.0000 (130016 PWs)   bands (ev):

   -15.5497 -15.1831 -15.1831 -14.3137 -14.3137 -14.3070 -14.0974 -14.0974
   -13.9364 -13.9081 -13.9081 -13.7723 -13.6093 -13.6093 -13.3986 -13.3986
   -13.3950 -13.3110  -7.1438  -7.1438  -6.9222  -6.6699  -6.5455  -6.4622
    -6.4622  -6.4527  -6.3454  -6.3454  -6.3108  -6.3108  -6.2337  -5.6939
    -5.6939  -5.3206  -5.3206  -5.2715  -5.1130  -5.1130  -5.0270  -5.0270
    -4.9580  -4.6414  -4.6091  -4.6091  -4.5022  -4.5021  -4.4499  -4.4499
    -4.4238  -4.4238  -4.2964  -3.9169  -3.8571  -3.8571  -3.6904  -3.6136
    -3.5397  -3.5397  -3.2825  -3.2559  -3.2559  -3.0482  -3.0482  -3.0195
    -3.0022  -2.7507  -2.7507  -2.7244  -2.7244  -2.4513  -2.4513  -2.3476
    -1.9594  -1.9594  -1.8543  -1.8543  -1.7890  -1.7465  -1.7465  -1.5940
    -1.5918

          k =-0.5000-0.2887 0.0000 (130074 PWs)   bands (ev):

   -15.4548 -15.4548 -14.7760 -14.7760 -14.2526 -14.2526 -13.9270 -13.9270
   -13.9270 -13.9270 -13.8986 -13.8671 -13.8671 -13.3996 -13.3963 -13.3963
   -13.3963 -13.3962  -7.2981  -6.7763  -6.7763  -6.7763  -6.7763  -6.5763
    -6.5763  -6.3331  -6.2599  -6.2599  -6.2599  -6.2599  -6.2228  -6.2228
    -5.3661  -5.2359  -5.2359  -5.1695  -5.1695  -5.1695  -5.1695  -4.9123
    -4.9123  -4.6764  -4.6764  -4.5687  -4.5687  -4.5687  -4.5687  -4.4645
    -4.4645  -4.3636  -4.1052  -4.1052  -3.6879  -3.6879  -3.6879  -3.6879
    -3.5645  -3.5645  -3.2992  -3.1593  -3.1593  -3.1069  -3.1069  -3.1068
    -3.1068  -2.9334  -2.9334  -2.5245  -2.5245  -2.4984  -2.4984  -2.0336
    -1.9904  -1.9740  -1.9740  -1.7518  -1.7518  -1.7518  -1.7518  -1.6809
    -1.6809

     highest occupied level (ev):    -1.3534

!    total energy              =    -501.68838721 Ry
     estimated scf accuracy    <       0.00000002 Ry

     The total energy is the sum of the following terms:
     one-electron contribution =   -4001.39372042 Ry
     hartree contribution      =    2037.95449389 Ry
     xc contribution           =    -115.45341522 Ry
     ewald contribution        =    1577.20425455 Ry

     convergence has been achieved in   4 iterations

     Forces acting on atoms (cartesian axes, Ry/au):

     atom    1 type  3   force =    -0.00000062    0.00000421    0.00000239
     atom    2 type  1   force =    -0.00001218    0.00000743   -0.00000000
     atom    3 type  2   force =    -0.00000949    0.00000621   -0.00000441
     atom    4 type  3   force =    -0.00000430    0.00000345    0.00000529
     atom    5 type  1   force =     0.00000083   -0.00000220    0.00001230
     atom    6 type  2   force =     0.00000133   -0.00000015   -0.00001666
     atom    7 type  3   force =     0.00000181    0.00000183    0.00000576
     atom    8 type  1   force =     0.00001224    0.00000194    0.00000227
     atom    9 type  2   force =     0.00000876    0.00000262   -0.00000461
     atom   10 type  3   force =    -0.00000295   -0.00000256    0.00000150
     atom   11 type  1   force =    -0.00001340   -0.00000702    0.00001070
     atom   12 type  2   force =    -0.00000795   -0.00000592   -0.00001721
     atom   13 type  3   force =     0.00000057   -0.00000081    0.00000724
     atom   14 type  1   force =     0.00001018   -0.00000724    0.00001282
     atom   15 type  2   force =     0.00000694   -0.00000601   -0.00002004
     atom   16 type  3   force =     0.00000086   -0.00000122    0.00000283
     atom   17 type  1   force =     0.00000424   -0.00001484    0.00000256
     atom   18 type  2   force =     0.00000241   -0.00001250   -0.00000666
     atom   19 type  3   force =     0.00000015    0.00000167    0.00000464
     atom   20 type  1   force =    -0.00000171    0.00001492    0.00001302
     atom   21 type  2   force =    -0.00000020    0.00001063   -0.00001860
     atom   22 type  3   force =    -0.00000044   -0.00000035    0.00000491
     atom   23 type  1   force =     0.00000065    0.00000210    0.00001513
     atom   24 type  2   force =     0.00000001    0.00000149   -0.00002058
     atom   25 type  3   force =    -0.00000112   -0.00000152    0.00000721
     atom   26 type  1   force =     0.00000194    0.00000150    0.00001520
     atom   27 type  2   force =     0.00000144    0.00000234   -0.00001702

     Total force =     0.000073     Total SCF correction =     0.000335
     SCF correction compared to forces is large: reduce conv_thr to get better values


     Computing stress (Cartesian axis) and pressure

          total   stress  (Ry/bohr**3)                   (kbar)     P=       -0.04
   0.00000093   0.00000000  -0.00000000            0.14        0.00       -0.00
   0.00000000   0.00000093   0.00000000            0.00        0.14        0.00
  -0.00000000   0.00000000  -0.00000271           -0.00        0.00       -0.40

     Energy error            =      3.3E-09 Ry
     Gradient error          =      2.1E-05 Ry/Bohr

     number of scf cycles    =   2
     number of bfgs steps    =   1

     energy             old  =    -501.6883872126 Ry
     energy             new  =    -501.6883872093 Ry

     CASE: energy            _new > energy            _old

     new trust radius        =       0.0000100340 bohr

     trust_radius < trust_radius_min

     resetting bfgs history

     new conv_thr            =       0.0000001000 Ry


ATOMIC_POSITIONS (angstrom)
Mo              -0.0009611255        0.0048879741        0.0543634024
S                1.5980658735        0.9280849949        1.5846447650
Se               1.5980659109        0.9280857164       -1.6390106077
Mo               3.1970874965        0.0048882346        0.0543625961
S                4.7961066508        0.9280860101        1.5846478239
Se               4.7961069743        0.9280874859       -1.6390101978
Mo               6.3951326438        0.0048885569        0.0543648749
S                7.9941605418        0.9280874967        1.5846465799
Se               7.9941595981        0.9280897640       -1.6390105149
Mo               1.5980620608        2.7744803870        0.0543637553
S                3.1970851452        3.6976758942        1.5846448894
Se               3.1970855319        3.6976761028       -1.6390090881
Mo               4.7961079399        2.7744792063        0.0543638141
S                6.3951334324        3.6976772475        1.5846448416
Se               6.3951343805        3.6976778394       -1.6390052612
Mo               7.9941595552        2.7744812017        0.0543645488
S                9.5931850491        3.6976807859        1.5846458079
Se               9.5931831740        3.6976796419       -1.6390097896
Mo               3.1970822345        5.5440671096        0.0543627563
S                4.7961087163        6.4672626171        1.5846427023
Se               4.7961094493        6.4672628176       -1.6390074093
Mo               6.3951358501        5.5440712551        0.0543647418
S                7.9941613728        6.4672678373        1.5846456720
Se               7.9941583746        6.4672679129       -1.6390082001
Mo               9.5931827947        5.5440724026        0.0543626612
S               11.1922054032        6.4672631578        1.5846457562
Se              11.1922060234        6.4672648965       -1.6390109182



     Writing config-only to output data dir /scratch/asgouros/train_MoSSe_defT_3x3//def_0.000_0.000_0.000/def_0.000_0.000_0.000.save/ :
     XML data file
     NEW-OLD atomic charge density approx. for the potential

     total cpu time spent up to now is     3297.2 secs

     Self-consistent Calculation

     iteration #  1     ecut=    80.00 Ry     beta= 0.70
     Davidson diagonalization with overlap
     ethr =  1.00E-06,  avg # of iterations =  1.9

     Threshold (ethr) on eigenvalues was too large:
     Diagonalizing with lowered threshold

     Davidson diagonalization with overlap
     ethr =  2.60E-10,  avg # of iterations =  4.7

     total cpu time spent up to now is     3420.9 secs

     total energy              =    -501.68838677 Ry
     estimated scf accuracy    <       0.00000072 Ry

     iteration #  2     ecut=    80.00 Ry     beta= 0.70
     Davidson diagonalization with overlap
     ethr =  4.46E-10,  avg # of iterations =  9.4

     total cpu time spent up to now is     3532.6 secs

     total energy              =    -501.68838574 Ry
     estimated scf accuracy    <       0.00001362 Ry

     iteration #  3     ecut=    80.00 Ry     beta= 0.70
     Davidson diagonalization with overlap
     ethr =  4.46E-10,  avg # of iterations =  9.0

     total cpu time spent up to now is     3634.1 secs

     total energy              =    -501.68838720 Ry
     estimated scf accuracy    <       0.00000011 Ry

     iteration #  4     ecut=    80.00 Ry     beta= 0.70
     Davidson diagonalization with overlap
     ethr =  6.81E-11,  avg # of iterations =  7.2

     total cpu time spent up to now is     3710.9 secs

     End of self-consistent calculation

          k = 0.0000 0.0000 0.0000 (130055 PWs)   bands (ev):

   -15.8473 -14.5081 -14.5081 -14.5081 -14.5081 -14.5080 -14.5080 -14.4793
   -13.7243 -13.7243 -13.7243 -13.7242 -13.7242 -13.7242 -13.6131 -13.6131
   -13.2046 -13.2046  -7.0108  -6.7313  -6.7313  -6.5651  -6.5650  -6.5650
    -6.5650  -6.5650  -6.5649  -6.0781  -6.0781  -5.6281  -5.6281  -5.6280
    -5.6280  -5.6280  -5.6280  -5.5310  -5.5310  -5.2560  -5.2559  -5.2559
    -5.2559  -5.2559  -5.2559  -4.8708  -4.8708  -4.3949  -4.3949  -4.0499
    -4.0499  -4.0499  -4.0498  -4.0498  -4.0498  -3.8313  -3.8313  -3.5024
    -3.5024  -3.3565  -3.0912  -3.0912  -3.0912  -3.0912  -3.0912  -3.0912
    -2.5248  -2.5248  -2.3887  -2.3887  -2.3887  -2.3887  -2.3886  -2.3886
    -2.3367  -2.3366  -2.3366  -2.3366  -2.3366  -2.3365  -1.4902  -1.3534
    -1.3534

          k =-0.0000 0.2887 0.0000 (129977 PWs)   bands (ev):

   -15.7460 -15.0150 -14.7056 -14.7056 -14.4205 -14.2253 -14.2253 -14.0749
   -14.0034 -13.8300 -13.8300 -13.6987 -13.6987 -13.5683 -13.5683 -13.4928
   -13.2581 -13.2581  -7.0685  -6.8901  -6.7660  -6.7660  -6.6390  -6.6390
    -6.4300  -6.4300  -6.3275  -6.3275  -6.3035  -6.1435  -5.9274  -5.9274
    -5.3464  -5.3464  -5.3166  -5.2378  -5.2378  -5.2153  -5.1809  -5.1809
    -5.1291  -5.1291  -4.8105  -4.6029  -4.6029  -4.4844  -4.4844  -4.3696
    -4.3696  -4.2820  -4.2002  -4.2002  -4.1029  -3.7399  -3.7243  -3.5704
    -3.3430  -3.3430  -3.2496  -3.0677  -3.0677  -2.9010  -2.9010  -2.8432
    -2.8432  -2.8004  -2.7811  -2.7555  -2.7555  -2.6725  -2.4465  -2.1931
    -2.0922  -2.0886  -2.0886  -2.0777  -1.9621  -1.9621  -1.5155  -1.5155
    -1.5087

          k = 0.0000-0.5774 0.0000 (130074 PWs)   bands (ev):

   -15.4548 -15.4548 -14.7759 -14.7759 -14.2526 -14.2526 -13.9270 -13.9269
   -13.9269 -13.9269 -13.8985 -13.8671 -13.8671 -13.3997 -13.3964 -13.3963
   -13.3963 -13.3963  -7.2981  -6.7763  -6.7763  -6.7763  -6.7763  -6.5764
    -6.5763  -6.3332  -6.2600  -6.2600  -6.2599  -6.2599  -6.2228  -6.2228
    -5.3661  -5.2359  -5.2359  -5.1695  -5.1695  -5.1695  -5.1694  -4.9123
    -4.9123  -4.6765  -4.6764  -4.5688  -4.5688  -4.5687  -4.5687  -4.4645
    -4.4645  -4.3636  -4.1053  -4.1052  -3.6879  -3.6879  -3.6879  -3.6878
    -3.5646  -3.5645  -3.2992  -3.1593  -3.1593  -3.1069  -3.1069  -3.1068
    -3.1068  -2.9334  -2.9333  -2.5245  -2.5245  -2.4984  -2.4983  -2.0337
    -1.9904  -1.9740  -1.9740  -1.7519  -1.7519  -1.7518  -1.7518  -1.6810
    -1.6810

          k = 0.2500-0.1443 0.0000 (129977 PWs)   bands (ev):

   -15.7460 -15.0150 -14.7056 -14.7056 -14.4205 -14.2253 -14.2253 -14.0749
   -14.0034 -13.8300 -13.8300 -13.6987 -13.6987 -13.5683 -13.5683 -13.4928
   -13.2581 -13.2581  -7.0685  -6.8901  -6.7660  -6.7660  -6.6390  -6.6390
    -6.4300  -6.4300  -6.3275  -6.3275  -6.3035  -6.1435  -5.9274  -5.9274
    -5.3464  -5.3464  -5.3166  -5.2378  -5.2378  -5.2153  -5.1809  -5.1809
    -5.1291  -5.1291  -4.8105  -4.6029  -4.6029  -4.4845  -4.4844  -4.3697
    -4.3696  -4.2820  -4.2002  -4.2002  -4.1029  -3.7399  -3.7243  -3.5704
    -3.3430  -3.3430  -3.2496  -3.0677  -3.0677  -2.9010  -2.9010  -2.8432
    -2.8432  -2.8004  -2.7811  -2.7555  -2.7555  -2.6725  -2.4465  -2.1931
    -2.0922  -2.0886  -2.0886  -2.0777  -1.9621  -1.9621  -1.5155  -1.5155
    -1.5087

          k = 0.2500 0.1443 0.0000 (129977 PWs)   bands (ev):

   -15.7460 -15.0150 -14.7056 -14.7056 -14.4205 -14.2253 -14.2253 -14.0749
   -14.0034 -13.8300 -13.8300 -13.6987 -13.6987 -13.5683 -13.5683 -13.4928
   -13.2581 -13.2581  -7.0685  -6.8901  -6.7660  -6.7660  -6.6390  -6.6390
    -6.4300  -6.4300  -6.3275  -6.3275  -6.3035  -6.1435  -5.9274  -5.9274
    -5.3464  -5.3464  -5.3166  -5.2378  -5.2378  -5.2153  -5.1809  -5.1809
    -5.1291  -5.1291  -4.8105  -4.6029  -4.6029  -4.4844  -4.4844  -4.3697
    -4.3696  -4.2820  -4.2002  -4.2002  -4.1029  -3.7399  -3.7243  -3.5704
    -3.3430  -3.3430  -3.2496  -3.0677  -3.0677  -2.9010  -2.9010  -2.8432
    -2.8432  -2.8004  -2.7811  -2.7555  -2.7555  -2.6725  -2.4465  -2.1931
    -2.0922  -2.0886  -2.0886  -2.0777  -1.9621  -1.9621  -1.5155  -1.5155
    -1.5087

          k = 0.2500-0.7217 0.0000 (130016 PWs)   bands (ev):

   -15.5496 -15.1831 -15.1830 -14.3137 -14.3136 -14.3070 -14.0975 -14.0974
   -13.9363 -13.9081 -13.9080 -13.7723 -13.6094 -13.6093 -13.3986 -13.3986
   -13.3951 -13.3110  -7.1438  -7.1438  -6.9222  -6.6699  -6.5455  -6.4622
    -6.4622  -6.4527  -6.3454  -6.3454  -6.3109  -6.3108  -6.2338  -5.6939
    -5.6939  -5.3206  -5.3206  -5.2715  -5.1130  -5.1130  -5.0271  -5.0271
    -4.9580  -4.6414  -4.6092  -4.6092  -4.5022  -4.5021  -4.4499  -4.4499
    -4.4238  -4.4238  -4.2965  -3.9169  -3.8572  -3.8572  -3.6904  -3.6137
    -3.5397  -3.5397  -3.2826  -3.2559  -3.2559  -3.0482  -3.0482  -3.0195
    -3.0022  -2.7507  -2.7507  -2.7245  -2.7244  -2.4513  -2.4513  -2.3476
    -1.9595  -1.9594  -1.8544  -1.8544  -1.7890  -1.7466  -1.7465  -1.5941
    -1.5918

          k = 0.2500-0.4330 0.0000 (130016 PWs)   bands (ev):

   -15.5496 -15.1831 -15.1831 -14.3136 -14.3136 -14.3070 -14.0974 -14.0974
   -13.9363 -13.9080 -13.9080 -13.7723 -13.6094 -13.6093 -13.3986 -13.3986
   -13.3951 -13.3110  -7.1438  -7.1438  -6.9222  -6.6699  -6.5455  -6.4622
    -6.4622  -6.4527  -6.3454  -6.3454  -6.3109  -6.3109  -6.2338  -5.6939
    -5.6939  -5.3206  -5.3206  -5.2715  -5.1130  -5.1130  -5.0271  -5.0271
    -4.9580  -4.6414  -4.6092  -4.6092  -4.5022  -4.5021  -4.4499  -4.4499
    -4.4238  -4.4238  -4.2965  -3.9169  -3.8572  -3.8572  -3.6904  -3.6137
    -3.5397  -3.5397  -3.2826  -3.2559  -3.2559  -3.0482  -3.0482  -3.0195
    -3.0022  -2.7507  -2.7507  -2.7245  -2.7244  -2.4513  -2.4513  -2.3476
    -1.9595  -1.9594  -1.8544  -1.8544  -1.7890  -1.7466  -1.7465  -1.5941
    -1.5918

          k =-0.5000 0.2887 0.0000 (130074 PWs)   bands (ev):

   -15.4548 -15.4548 -14.7759 -14.7759 -14.2526 -14.2526 -13.9270 -13.9270
   -13.9269 -13.9269 -13.8985 -13.8671 -13.8671 -13.3997 -13.3964 -13.3964
   -13.3963 -13.3963  -7.2981  -6.7763  -6.7763  -6.7763  -6.7763  -6.5764
    -6.5763  -6.3332  -6.2600  -6.2600  -6.2599  -6.2599  -6.2228  -6.2228
    -5.3661  -5.2359  -5.2359  -5.1695  -5.1695  -5.1694  -5.1694  -4.9123
    -4.9123  -4.6765  -4.6764  -4.5688  -4.5688  -4.5687  -4.5687  -4.4645
    -4.4645  -4.3636  -4.1053  -4.1052  -3.6879  -3.6879  -3.6879  -3.6879
    -3.5646  -3.5645  -3.2992  -3.1593  -3.1593  -3.1069  -3.1069  -3.1068
    -3.1068  -2.9334  -2.9333  -2.5245  -2.5245  -2.4984  -2.4983  -2.0337
    -1.9904  -1.9740  -1.9740  -1.7519  -1.7519  -1.7518  -1.7518  -1.6810
    -1.6810

          k =-0.5000 0.5774 0.0000 (130016 PWs)   bands (ev):

   -15.5496 -15.1831 -15.1830 -14.3136 -14.3136 -14.3070 -14.0975 -14.0974
   -13.9363 -13.9081 -13.9080 -13.7723 -13.6094 -13.6093 -13.3986 -13.3986
   -13.3951 -13.3110  -7.1438  -7.1438  -6.9222  -6.6699  -6.5455  -6.4622
    -6.4622  -6.4527  -6.3454  -6.3454  -6.3109  -6.3108  -6.2338  -5.6939
    -5.6939  -5.3206  -5.3206  -5.2715  -5.1130  -5.1130  -5.0271  -5.0271
    -4.9580  -4.6414  -4.6092  -4.6092  -4.5022  -4.5021  -4.4499  -4.4499
    -4.4238  -4.4238  -4.2965  -3.9169  -3.8572  -3.8572  -3.6904  -3.6137
    -3.5397  -3.5397  -3.2826  -3.2559  -3.2559  -3.0482  -3.0482  -3.0195
    -3.0022  -2.7507  -2.7507  -2.7245  -2.7244  -2.4513  -2.4513  -2.3476
    -1.9595  -1.9594  -1.8544  -1.8544  -1.7890  -1.7466  -1.7465  -1.5941
    -1.5918

          k =-0.5000-0.2887 0.0000 (130074 PWs)   bands (ev):

   -15.4548 -15.4548 -14.7759 -14.7759 -14.2526 -14.2526 -13.9270 -13.9269
   -13.9269 -13.9269 -13.8985 -13.8671 -13.8671 -13.3997 -13.3964 -13.3963
   -13.3963 -13.3963  -7.2981  -6.7763  -6.7763  -6.7763  -6.7763  -6.5764
    -6.5763  -6.3332  -6.2600  -6.2600  -6.2599  -6.2599  -6.2228  -6.2228
    -5.3661  -5.2359  -5.2359  -5.1695  -5.1695  -5.1695  -5.1694  -4.9123
    -4.9123  -4.6765  -4.6764  -4.5688  -4.5688  -4.5687  -4.5687  -4.4645
    -4.4645  -4.3636  -4.1053  -4.1052  -3.6879  -3.6879  -3.6879  -3.6879
    -3.5646  -3.5645  -3.2992  -3.1593  -3.1593  -3.1069  -3.1069  -3.1068
    -3.1068  -2.9334  -2.9334  -2.5245  -2.5245  -2.4984  -2.4983  -2.0337
    -1.9904  -1.9740  -1.9740  -1.7519  -1.7519  -1.7518  -1.7518  -1.6810
    -1.6810

     highest occupied level (ev):    -1.3534

!    total energy              =    -501.68838720 Ry
     estimated scf accuracy    <       0.00000005 Ry

     The total energy is the sum of the following terms:
     one-electron contribution =   -4001.39736269 Ry
     hartree contribution      =    2037.95817452 Ry
     xc contribution           =    -115.45345358 Ry
     ewald contribution        =    1577.20425455 Ry

     convergence has been achieved in   4 iterations

     Forces acting on atoms (cartesian axes, Ry/au):

     atom    1 type  3   force =    -0.00000213   -0.00000428    0.00000551
     atom    2 type  1   force =     0.00001167   -0.00000971    0.00001066
     atom    3 type  2   force =     0.00001164   -0.00000909   -0.00001406
     atom    4 type  3   force =     0.00000277   -0.00000128    0.00000426
     atom    5 type  1   force =     0.00000333   -0.00000031   -0.00001656
     atom    6 type  2   force =     0.00000387    0.00000006    0.00001194
     atom    7 type  3   force =    -0.00000074    0.00000018    0.00000237
     atom    8 type  1   force =    -0.00001594   -0.00000646    0.00000570
     atom    9 type  2   force =    -0.00001602   -0.00000591   -0.00000782
     atom   10 type  3   force =     0.00000432    0.00000263    0.00000615
     atom   11 type  1   force =     0.00001464    0.00000974   -0.00000510
     atom   12 type  2   force =     0.00001483    0.00000822    0.00000272
     atom   13 type  3   force =     0.00000372    0.00000185    0.00000018
     atom   14 type  1   force =    -0.00001109    0.00000867   -0.00001092
     atom   15 type  2   force =    -0.00001116    0.00000783    0.00000817
     atom   16 type  3   force =    -0.00000132    0.00000136    0.00000378
     atom   17 type  1   force =    -0.00000519    0.00001670    0.00000673
     atom   18 type  2   force =    -0.00000493    0.00001590   -0.00000913
     atom   19 type  3   force =     0.00000056    0.00000059    0.00000151
     atom   20 type  1   force =     0.00000116   -0.00001645   -0.00000721
     atom   21 type  2   force =     0.00000180   -0.00001583    0.00000529
     atom   22 type  3   force =     0.00000022   -0.00000160    0.00000030
     atom   23 type  1   force =    -0.00000096   -0.00000392   -0.00001755
     atom   24 type  2   force =    -0.00000109   -0.00000368    0.00001266
     atom   25 type  3   force =    -0.00000129    0.00000170    0.00000359
     atom   26 type  1   force =    -0.00000100    0.00000126   -0.00001661
     atom   27 type  2   force =    -0.00000167    0.00000183    0.00001346

     Total force =     0.000075     Total SCF correction =     0.000485
     SCF correction compared to forces is large: reduce conv_thr to get better values


     Computing stress (Cartesian axis) and pressure

          total   stress  (Ry/bohr**3)                   (kbar)     P=       -0.04
   0.00000092   0.00000000  -0.00000000            0.13        0.00       -0.00
   0.00000000   0.00000092   0.00000000            0.00        0.14        0.00
  -0.00000000   0.00000000  -0.00000268           -0.00        0.00       -0.39

     Energy error            =      1.5E-08 Ry
     Gradient error          =      1.8E-05 Ry/Bohr

     number of scf cycles    =   3
     number of bfgs steps    =   1

     energy             old  =    -501.6883872126 Ry
     energy             new  =    -501.6883871974 Ry

     CASE: energy            _new > energy            _old

     new trust radius        =       0.0000048001 bohr

     trust_radius < trust_radius_min

     resetting bfgs history

     Message from routine bfgs:
     history already reset at previous step: stopping
     new conv_thr            =       0.0000001000 Ry


ATOMIC_POSITIONS (angstrom)
Mo              -0.0009611255        0.0048879741        0.0543634024
S                1.5980658735        0.9280849949        1.5846447650
Se               1.5980659109        0.9280857164       -1.6390106077
Mo               3.1970874965        0.0048882346        0.0543625961
S                4.7961066508        0.9280860101        1.5846478239
Se               4.7961069743        0.9280874859       -1.6390101978
Mo               6.3951326438        0.0048885569        0.0543648749
S                7.9941605418        0.9280874967        1.5846465799
Se               7.9941595981        0.9280897640       -1.6390105149
Mo               1.5980620608        2.7744803870        0.0543637553
S                3.1970851452        3.6976758942        1.5846448894
Se               3.1970855319        3.6976761028       -1.6390090881
Mo               4.7961079399        2.7744792063        0.0543638141
S                6.3951334324        3.6976772475        1.5846448416
Se               6.3951343805        3.6976778394       -1.6390052612
Mo               7.9941595552        2.7744812017        0.0543645488
S                9.5931850491        3.6976807859        1.5846458079
Se               9.5931831740        3.6976796419       -1.6390097896
Mo               3.1970822345        5.5440671096        0.0543627563
S                4.7961087163        6.4672626171        1.5846427023
Se               4.7961094493        6.4672628176       -1.6390074093
Mo               6.3951358501        5.5440712551        0.0543647418
S                7.9941613728        6.4672678373        1.5846456720
Se               7.9941583746        6.4672679129       -1.6390082001
Mo               9.5931827947        5.5440724026        0.0543626612
S               11.1922054032        6.4672631578        1.5846457562
Se              11.1922060234        6.4672648965       -1.6390109182



     Writing config-only to output data dir /scratch/asgouros/train_MoSSe_defT_3x3//def_0.000_0.000_0.000/def_0.000_0.000_0.000.save/ :
     XML data file
     NEW-OLD atomic charge density approx. for the potential

     total cpu time spent up to now is     3872.8 secs

     Self-consistent Calculation

     iteration #  1     ecut=    80.00 Ry     beta= 0.70
     Davidson diagonalization with overlap
     ethr =  1.00E-06,  avg # of iterations =  2.0

     Threshold (ethr) on eigenvalues was too large:
     Diagonalizing with lowered threshold

     Davidson diagonalization with overlap
     ethr =  3.37E-10,  avg # of iterations =  5.9

     total cpu time spent up to now is     3991.8 secs

     total energy              =    -501.68838551 Ry
     estimated scf accuracy    <       0.00000243 Ry

     iteration #  2     ecut=    80.00 Ry     beta= 0.70
     Davidson diagonalization with overlap
     ethr =  1.50E-09,  avg # of iterations =  9.8

     total cpu time spent up to now is     4095.8 secs

     total energy              =    -501.68838138 Ry
     estimated scf accuracy    <       0.00006418 Ry

     iteration #  3     ecut=    80.00 Ry     beta= 0.70
     Davidson diagonalization with overlap
     ethr =  1.50E-09,  avg # of iterations = 10.3

     total cpu time spent up to now is     4179.9 secs

     total energy              =    -501.68838714 Ry
     estimated scf accuracy    <       0.00000015 Ry

     iteration #  4     ecut=    80.00 Ry     beta= 0.70
     Davidson diagonalization with overlap
     ethr =  9.33E-11,  avg # of iterations =  7.9

     total cpu time spent up to now is     4251.7 secs

     End of self-consistent calculation

          k = 0.0000 0.0000 0.0000 (130055 PWs)   bands (ev):

   -15.8473 -14.5081 -14.5081 -14.5081 -14.5081 -14.5081 -14.5081 -14.4793
   -13.7242 -13.7242 -13.7242 -13.7242 -13.7242 -13.7241 -13.6131 -13.6131
   -13.2045 -13.2045  -7.0107  -6.7312  -6.7312  -6.5650  -6.5649  -6.5649
    -6.5649  -6.5649  -6.5649  -6.0781  -6.0781  -5.6280  -5.6280  -5.6280
    -5.6280  -5.6280  -5.6280  -5.5309  -5.5309  -5.2559  -5.2559  -5.2559
    -5.2559  -5.2558  -5.2558  -4.8708  -4.8708  -4.3949  -4.3949  -4.0498
    -4.0498  -4.0498  -4.0497  -4.0497  -4.0497  -3.8312  -3.8312  -3.5024
    -3.5024  -3.3565  -3.0912  -3.0912  -3.0912  -3.0912  -3.0912  -3.0911
    -2.5247  -2.5247  -2.3886  -2.3886  -2.3886  -2.3886  -2.3886  -2.3886
    -2.3365  -2.3365  -2.3365  -2.3365  -2.3365  -2.3364  -1.4901  -1.3533
    -1.3533

          k =-0.0000 0.2887 0.0000 (129977 PWs)   bands (ev):

   -15.7460 -15.0150 -14.7056 -14.7056 -14.4204 -14.2253 -14.2253 -14.0749
   -14.0033 -13.8299 -13.8299 -13.6987 -13.6987 -13.5683 -13.5682 -13.4928
   -13.2581 -13.2580  -7.0685  -6.8901  -6.7659  -6.7659  -6.6390  -6.6390
    -6.4300  -6.4300  -6.3274  -6.3274  -6.3034  -6.1435  -5.9273  -5.9273
    -5.3463  -5.3463  -5.3165  -5.2378  -5.2378  -5.2152  -5.1809  -5.1809
    -5.1291  -5.1291  -4.8105  -4.6029  -4.6029  -4.4844  -4.4844  -4.3696
    -4.3696  -4.2819  -4.2001  -4.2001  -4.1028  -3.7398  -3.7242  -3.5704
    -3.3430  -3.3430  -3.2496  -3.0677  -3.0677  -2.9009  -2.9009  -2.8431
    -2.8431  -2.8004  -2.7811  -2.7555  -2.7555  -2.6724  -2.4464  -2.1930
    -2.0922  -2.0885  -2.0885  -2.0776  -1.9620  -1.9620  -1.5154  -1.5154
    -1.5086

          k = 0.0000-0.5774 0.0000 (130074 PWs)   bands (ev):

   -15.4548 -15.4548 -14.7759 -14.7759 -14.2526 -14.2525 -13.9270 -13.9270
   -13.9269 -13.9269 -13.8986 -13.8671 -13.8671 -13.3996 -13.3963 -13.3963
   -13.3962 -13.3962  -7.2981  -6.7763  -6.7763  -6.7763  -6.7763  -6.5763
    -6.5763  -6.3331  -6.2599  -6.2599  -6.2599  -6.2599  -6.2228  -6.2228
    -5.3661  -5.2359  -5.2359  -5.1695  -5.1694  -5.1694  -5.1694  -4.9123
    -4.9123  -4.6764  -4.6763  -4.5687  -4.5687  -4.5687  -4.5687  -4.4644
    -4.4644  -4.3635  -4.1052  -4.1052  -3.6878  -3.6878  -3.6878  -3.6878
    -3.5644  -3.5644  -3.2992  -3.1592  -3.1592  -3.1069  -3.1068  -3.1068
    -3.1068  -2.9333  -2.9333  -2.5245  -2.5245  -2.4983  -2.4983  -2.0336
    -1.9904  -1.9739  -1.9739  -1.7518  -1.7518  -1.7517  -1.7517  -1.6809
    -1.6809

          k = 0.2500-0.1443 0.0000 (129977 PWs)   bands (ev):

   -15.7460 -15.0150 -14.7056 -14.7056 -14.4204 -14.2253 -14.2253 -14.0749
   -14.0033 -13.8299 -13.8299 -13.6987 -13.6987 -13.5683 -13.5682 -13.4928
   -13.2581 -13.2580  -7.0685  -6.8901  -6.7659  -6.7659  -6.6390  -6.6390
    -6.4300  -6.4300  -6.3274  -6.3274  -6.3034  -6.1435  -5.9273  -5.9273
    -5.3463  -5.3463  -5.3165  -5.2378  -5.2378  -5.2152  -5.1809  -5.1809
    -5.1291  -5.1291  -4.8105  -4.6029  -4.6029  -4.4844  -4.4844  -4.3696
    -4.3696  -4.2819  -4.2002  -4.2001  -4.1028  -3.7398  -3.7242  -3.5704
    -3.3430  -3.3430  -3.2496  -3.0677  -3.0677  -2.9009  -2.9009  -2.8431
    -2.8431  -2.8004  -2.7811  -2.7555  -2.7555  -2.6724  -2.4464  -2.1930
    -2.0922  -2.0885  -2.0885  -2.0776  -1.9620  -1.9620  -1.5154  -1.5154
    -1.5086

          k = 0.2500 0.1443 0.0000 (129977 PWs)   bands (ev):

   -15.7460 -15.0150 -14.7056 -14.7056 -14.4204 -14.2253 -14.2253 -14.0749
   -14.0033 -13.8299 -13.8299 -13.6987 -13.6987 -13.5683 -13.5682 -13.4928
   -13.2581 -13.2580  -7.0685  -6.8901  -6.7659  -6.7659  -6.6390  -6.6390
    -6.4300  -6.4300  -6.3274  -6.3274  -6.3034  -6.1435  -5.9273  -5.9273
    -5.3463  -5.3463  -5.3165  -5.2378  -5.2378  -5.2152  -5.1809  -5.1809
    -5.1291  -5.1291  -4.8105  -4.6029  -4.6029  -4.4844  -4.4844  -4.3696
    -4.3696  -4.2819  -4.2002  -4.2001  -4.1028  -3.7398  -3.7242  -3.5704
    -3.3430  -3.3430  -3.2496  -3.0677  -3.0677  -2.9009  -2.9009  -2.8431
    -2.8431  -2.8004  -2.7811  -2.7555  -2.7555  -2.6724  -2.4464  -2.1930
    -2.0922  -2.0885  -2.0885  -2.0776  -1.9620  -1.9620  -1.5154  -1.5154
    -1.5086

          k = 0.2500-0.7217 0.0000 (130016 PWs)   bands (ev):

   -15.5497 -15.1831 -15.1831 -14.3137 -14.3136 -14.3070 -14.0974 -14.0974
   -13.9363 -13.9081 -13.9081 -13.7723 -13.6093 -13.6093 -13.3986 -13.3985
   -13.3950 -13.3110  -7.1438  -7.1437  -6.9222  -6.6699  -6.5455  -6.4622
    -6.4622  -6.4527  -6.3454  -6.3453  -6.3108  -6.3108  -6.2337  -5.6938
    -5.6938  -5.3205  -5.3205  -5.2715  -5.1130  -5.1129  -5.0270  -5.0270
    -4.9580  -4.6413  -4.6091  -4.6091  -4.5021  -4.5020  -4.4499  -4.4498
    -4.4238  -4.4238  -4.2964  -3.9168  -3.8571  -3.8571  -3.6903  -3.6136
    -3.5397  -3.5396  -3.2825  -3.2559  -3.2559  -3.0481  -3.0481  -3.0195
    -3.0021  -2.7507  -2.7507  -2.7244  -2.7244  -2.4513  -2.4513  -2.3475
    -1.9594  -1.9593  -1.8543  -1.8543  -1.7889  -1.7465  -1.7464  -1.5940
    -1.5917

          k = 0.2500-0.4330 0.0000 (130016 PWs)   bands (ev):

   -15.5497 -15.1831 -15.1831 -14.3137 -14.3136 -14.3070 -14.0974 -14.0974
   -13.9363 -13.9081 -13.9080 -13.7723 -13.6093 -13.6093 -13.3986 -13.3985
   -13.3950 -13.3110  -7.1438  -7.1437  -6.9222  -6.6699  -6.5455  -6.4622
    -6.4622  -6.4527  -6.3454  -6.3453  -6.3108  -6.3108  -6.2337  -5.6938
    -5.6938  -5.3205  -5.3205  -5.2715  -5.1130  -5.1129  -5.0270  -5.0270
    -4.9580  -4.6413  -4.6091  -4.6091  -4.5021  -4.5020  -4.4499  -4.4498
    -4.4238  -4.4238  -4.2964  -3.9168  -3.8571  -3.8571  -3.6903  -3.6136
    -3.5397  -3.5396  -3.2825  -3.2559  -3.2559  -3.0481  -3.0481  -3.0195
    -3.0021  -2.7507  -2.7507  -2.7244  -2.7244  -2.4513  -2.4513  -2.3475
    -1.9594  -1.9593  -1.8543  -1.8542  -1.7889  -1.7465  -1.7464  -1.5940
    -1.5917

          k =-0.5000 0.2887 0.0000 (130074 PWs)   bands (ev):

   -15.4548 -15.4548 -14.7759 -14.7759 -14.2526 -14.2525 -13.9270 -13.9270
   -13.9269 -13.9269 -13.8986 -13.8671 -13.8671 -13.3996 -13.3963 -13.3963
   -13.3962 -13.3962  -7.2981  -6.7763  -6.7763  -6.7763  -6.7763  -6.5763
    -6.5763  -6.3331  -6.2599  -6.2599  -6.2599  -6.2599  -6.2228  -6.2228
    -5.3661  -5.2359  -5.2359  -5.1694  -5.1694  -5.1694  -5.1694  -4.9123
    -4.9123  -4.6764  -4.6763  -4.5687  -4.5687  -4.5687  -4.5687  -4.4644
    -4.4644  -4.3635  -4.1052  -4.1052  -3.6878  -3.6878  -3.6878  -3.6878
    -3.5644  -3.5644  -3.2992  -3.1592  -3.1592  -3.1069  -3.1068  -3.1068
    -3.1068  -2.9333  -2.9333  -2.5245  -2.5245  -2.4983  -2.4983  -2.0336
    -1.9904  -1.9739  -1.9739  -1.7518  -1.7518  -1.7517  -1.7517  -1.6809
    -1.6809

          k =-0.5000 0.5774 0.0000 (130016 PWs)   bands (ev):

   -15.5497 -15.1831 -15.1831 -14.3137 -14.3136 -14.3070 -14.0974 -14.0974
   -13.9363 -13.9081 -13.9080 -13.7723 -13.6093 -13.6093 -13.3986 -13.3985
   -13.3950 -13.3110  -7.1438  -7.1437  -6.9222  -6.6699  -6.5455  -6.4622
    -6.4622  -6.4527  -6.3454  -6.3453  -6.3108  -6.3108  -6.2337  -5.6938
    -5.6938  -5.3205  -5.3205  -5.2715  -5.1130  -5.1129  -5.0270  -5.0270
    -4.9580  -4.6413  -4.6091  -4.6091  -4.5021  -4.5020  -4.4499  -4.4498
    -4.4238  -4.4238  -4.2964  -3.9168  -3.8571  -3.8571  -3.6903  -3.6136
    -3.5397  -3.5396  -3.2825  -3.2559  -3.2559  -3.0481  -3.0481  -3.0195
    -3.0021  -2.7507  -2.7507  -2.7244  -2.7244  -2.4513  -2.4513  -2.3475
    -1.9594  -1.9593  -1.8543  -1.8543  -1.7889  -1.7465  -1.7464  -1.5940
    -1.5917

          k =-0.5000-0.2887 0.0000 (130074 PWs)   bands (ev):

   -15.4548 -15.4548 -14.7759 -14.7759 -14.2526 -14.2525 -13.9270 -13.9270
   -13.9269 -13.9269 -13.8986 -13.8671 -13.8671 -13.3996 -13.3963 -13.3963
   -13.3962 -13.3962  -7.2981  -6.7763  -6.7763  -6.7763  -6.7763  -6.5763
    -6.5763  -6.3331  -6.2599  -6.2599  -6.2599  -6.2599  -6.2228  -6.2228
    -5.3661  -5.2359  -5.2359  -5.1694  -5.1694  -5.1694  -5.1694  -4.9123
    -4.9123  -4.6764  -4.6763  -4.5687  -4.5687  -4.5687  -4.5687  -4.4644
    -4.4644  -4.3635  -4.1052  -4.1052  -3.6878  -3.6878  -3.6878  -3.6878
    -3.5644  -3.5644  -3.2992  -3.1592  -3.1592  -3.1069  -3.1068  -3.1068
    -3.1068  -2.9333  -2.9333  -2.5245  -2.5245  -2.4983  -2.4983  -2.0336
    -1.9904  -1.9739  -1.9739  -1.7518  -1.7518  -1.7517  -1.7517  -1.6809
    -1.6809

     highest occupied level (ev):    -1.3533

!    total energy              =    -501.68838723 Ry
     estimated scf accuracy    <       0.00000001 Ry

     The total energy is the sum of the following terms:
     one-electron contribution =   -4001.39581642 Ry
     hartree contribution      =    2037.95660210 Ry
     xc contribution           =    -115.45342745 Ry
     ewald contribution        =    1577.20425455 Ry

     convergence has been achieved in   4 iterations

     Forces acting on atoms (cartesian axes, Ry/au):

     atom    1 type  3   force =    -0.00000265    0.00000445    0.00000626
     atom    2 type  1   force =    -0.00000747    0.00000125   -0.00001008
     atom    3 type  2   force =    -0.00000558    0.00000115    0.00000565
     atom    4 type  3   force =    -0.00000157    0.00000213    0.00000447
     atom    5 type  1   force =     0.00000007   -0.00000232   -0.00000499
     atom    6 type  2   force =     0.00000022   -0.00000248   -0.00000127
     atom    7 type  3   force =     0.00000308    0.00000091    0.00000312
     atom    8 type  1   force =     0.00000726    0.00000291   -0.00001149
     atom    9 type  2   force =     0.00000505    0.00000218    0.00000783
     atom   10 type  3   force =    -0.00000177   -0.00000346    0.00000589
     atom   11 type  1   force =    -0.00000615   -0.00000297   -0.00000073
     atom   12 type  2   force =    -0.00000464   -0.00000313   -0.00000325
     atom   13 type  3   force =     0.00000176   -0.00000169    0.00000484
     atom   14 type  1   force =     0.00000849   -0.00000553   -0.00000234
     atom   15 type  2   force =     0.00000629   -0.00000488   -0.00000289
     atom   16 type  3   force =     0.00000175   -0.00000213    0.00000465
     atom   17 type  1   force =    -0.00000191   -0.00000959   -0.00000874
     atom   18 type  2   force =    -0.00000164   -0.00000779    0.00000449
     atom   19 type  3   force =    -0.00000107    0.00000275    0.00000396
     atom   20 type  1   force =    -0.00000120    0.00001017   -0.00000194
     atom   21 type  2   force =    -0.00000057    0.00000844   -0.00000179
     atom   22 type  3   force =     0.00000098    0.00000036    0.00000493
     atom   23 type  1   force =    -0.00000029    0.00000276   -0.00000246
     atom   24 type  2   force =     0.00000018    0.00000360   -0.00000370
     atom   25 type  3   force =    -0.00000029   -0.00000255    0.00000455
     atom   26 type  1   force =     0.00000125    0.00000228   -0.00000228
     atom   27 type  2   force =     0.00000042    0.00000320   -0.00000267

     Total force =     0.000040     Total SCF correction =     0.000256
     SCF correction compared to forces is large: reduce conv_thr to get better values


     Computing stress (Cartesian axis) and pressure

          total   stress  (Ry/bohr**3)                   (kbar)     P=       -0.04
   0.00000092   0.00000000  -0.00000000            0.14        0.00       -0.00
   0.00000000   0.00000092   0.00000000            0.00        0.14        0.00
  -0.00000000   0.00000000  -0.00000270           -0.00        0.00       -0.40

     Message from routine bfgs:
     history already reset at previous step: exiting
     Energy error            =      1.7E-08 Ry
     Gradient error          =      1.1E-05 Ry/Bohr

     bfgs failed after   4 scf cycles and   1 bfgs steps, convergence not achieved
     (criteria: energy <  1.0E-06 Ry, force <  1.0E-05 Ry/Bohr)

     End of BFGS Geometry Optimization

     Final energy             =    -501.6883872293 Ry

     File /scratch/asgouros/train_MoSSe_defT_3x3//def_0.000_0.000_0.000/def_0.000_0.000_0.000.bfgs deleted, as requested
Begin final coordinates

ATOMIC_POSITIONS (angstrom)
Mo              -0.0009611255        0.0048879741        0.0543634024
S                1.5980658735        0.9280849949        1.5846447650
Se               1.5980659109        0.9280857164       -1.6390106077
Mo               3.1970874965        0.0048882346        0.0543625961
S                4.7961066508        0.9280860101        1.5846478239
Se               4.7961069743        0.9280874859       -1.6390101978
Mo               6.3951326438        0.0048885569        0.0543648749
S                7.9941605418        0.9280874967        1.5846465799
Se               7.9941595981        0.9280897640       -1.6390105149
Mo               1.5980620608        2.7744803870        0.0543637553
S                3.1970851452        3.6976758942        1.5846448894
Se               3.1970855319        3.6976761028       -1.6390090881
Mo               4.7961079399        2.7744792063        0.0543638141
S                6.3951334324        3.6976772475        1.5846448416
Se               6.3951343805        3.6976778394       -1.6390052612
Mo               7.9941595552        2.7744812017        0.0543645488
S                9.5931850491        3.6976807859        1.5846458079
Se               9.5931831740        3.6976796419       -1.6390097896
Mo               3.1970822345        5.5440671096        0.0543627563
S                4.7961087163        6.4672626171        1.5846427023
Se               4.7961094493        6.4672628176       -1.6390074093
Mo               6.3951358501        5.5440712551        0.0543647418
S                7.9941613728        6.4672678373        1.5846456720
Se               7.9941583746        6.4672679129       -1.6390082001
Mo               9.5931827947        5.5440724026        0.0543626612
S               11.1922054032        6.4672631578        1.5846457562
Se              11.1922060234        6.4672648965       -1.6390109182
End final coordinates



     Writing all to output data dir /scratch/asgouros/train_MoSSe_defT_3x3//def_0.000_0.000_0.000/def_0.000_0.000_0.000.save/ :
     XML data file, charge density, pseudopotentials, collected wavefunctions

     init_run     :     51.96s CPU     55.23s WALL (       1 calls)
     electrons    :   3510.64s CPU   3652.72s WALL (       4 calls)
     update_pot   :      0.41s CPU      0.45s WALL (       3 calls)
     forces       :     30.43s CPU     30.92s WALL (       4 calls)
     stress       :    662.72s CPU    673.68s WALL (       4 calls)

     Called by init_run:
     wfcinit      :     51.10s CPU     54.32s WALL (       1 calls)
     potinit      :      0.08s CPU      0.10s WALL (       1 calls)
     hinit0       :      0.43s CPU      0.45s WALL (       1 calls)

     Called by electrons:
     c_bands      :   3060.31s CPU   3185.49s WALL (      38 calls)
     sum_band     :    443.12s CPU    458.90s WALL (      38 calls)
     v_of_rho     :      2.08s CPU      2.22s WALL (      39 calls)
     mix_rho      :      4.58s CPU      5.33s WALL (      38 calls)

     Called by c_bands:
     init_us_2    :     78.90s CPU     79.56s WALL (     850 calls)
     cegterg      :   2942.50s CPU   3065.06s WALL (     380 calls)

     Called by *egterg:
     cdiaghg      :     22.08s CPU     22.12s WALL (    2459 calls)
     h_psi        :   2566.79s CPU   2674.88s WALL (    2529 calls)
     g_psi        :      9.14s CPU      9.17s WALL (    2139 calls)

     Called by h_psi:
     h_psi:calbec :    190.60s CPU    193.21s WALL (    2529 calls)
     vloc_psi     :   2183.20s CPU   2277.61s WALL (    2529 calls)
     add_vuspsi   :    176.62s CPU    177.09s WALL (    2529 calls)

     General routines
     calbec       :    212.61s CPU    215.31s WALL (    2729 calls)
     fft          :      2.82s CPU      3.10s WALL (     139 calls)
     ffts         :      0.70s CPU      0.82s WALL (      38 calls)
     fftw         :   1856.02s CPU   1947.73s WALL (  239916 calls)
     davcio       :      0.01s CPU      0.34s WALL (      10 calls)

     Parallel routines

     PWSCF        :      1h10m CPU      1h13m WALL


   This run was terminated on:  18:35:13  10Jun2025            

=------------------------------------------------------------------------------=
   JOB DONE.
=------------------------------------------------------------------------------=
