27
energy=-6825.823685135 Lattice="9.594147357 0.000002701 0.000000000 4.797070996 8.308770947 0.000000000 0.000000000 0.000000000 20.000000000" virial="0.136136212 0.000000000 -0.000000000 0.000000000 0.136136212 0.000000000 -0.000000000 0.000000000 -0.389378842" Properties=species:S:1:pos:R:3:forces:R:3 config_type=01 weight=1.0
Mo -0.000960825 0.004888923 0.054358620 -0.000023397 0.000001286 0.000285907
S 1.598063182 0.928088218 1.584635754 0.000009513 -0.000068906 -0.000134726
Se 1.598063068 0.928088747 -1.638996048 0.000000257 -0.000072248 -0.000151695
Mo 3.197088842 0.004887037 0.054358996 -0.000052193 0.000069934 0.000286164
S 4.796105939 0.928088046 1.584642420 0.000028025 -0.000045509 -0.000204146
Se 4.796106446 0.928089433 -1.639000319 0.000026997 -0.000053993 -0.000101044
Mo 6.395131815 0.004888020 0.054359232 0.000070448 0.000053479 0.000286421
S 7.994163936 0.928089642 1.584638069 -0.000041652 -0.000085875 -0.000143725
Se 7.994162908 0.928091518 -1.638997464 -0.000031625 -0.000086389 -0.000129327
Mo 1.598060760 2.774479621 0.054358645 0.000016969 -0.000010799 0.000302876
S 3.197082455 3.697672293 1.584637697 0.000028282 0.000051936 -0.000138326
Se 3.197083124 3.697672587 -1.638996802 0.000026997 0.000059393 -0.000163265
Mo 4.796108093 2.774477810 0.054359077 0.000014912 0.000032910 0.000314961
S 6.395134620 3.697676712 1.584638246 -0.000035995 -0.000003600 -0.000110300
Se 6.395134994 3.697677399 -1.638993713 -0.000029054 0.000009770 -0.000204660
Mo 7.994160764 2.774482433 0.054360825 -0.000015170 -0.000032653 0.000282822
S 9.593186575 3.697677013 1.584636577 0.000002828 0.000022112 -0.000074048
Se 9.593184426 3.697675791 -1.638995217 0.000001286 0.000033424 -0.000229600
Mo 3.197081393 5.544068107 0.054358135 0.000035995 -0.000004114 0.000302362
S 4.796110721 6.467264835 1.584636094 -0.000047565 0.000018769 -0.000135497
Se 4.796111194 6.467264779 -1.638996557 -0.000041395 0.000021340 -0.000136783
Mo 6.395137883 5.544071886 0.054360354 -0.000075591 -0.000031367 0.000285907
S 7.994159725 6.467266504 1.584639439 -0.000009256 0.000052451 -0.000120328
Se 7.994156678 6.467266710 -1.638998007 0.000001543 0.000046280 -0.000186148
Mo 9.593181708 5.544073549 0.054357838 0.000048851 -0.000082533 0.000290021
S 11.192204710 6.467262366 1.584640071 0.000051679 0.000057850 -0.000162237
Se 11.192205918 6.467264568 -1.639001960 0.000038309 0.000047051 -0.000111329
