27
energy=-6822.628927471 lattice="9.594137763 0.000000000 0.000000000 4.797068882 8.308763156 0.000000000 0.000000000 0.000000000 19.999977958" virial="1.484319595 -3.965504717 4.126525581 -3.965504717 3.943547327 -4.914063985 4.126525581 -4.914063985 -1.730242368" properties=species:S:1:pos:R:3:force:R:3 config_type=03 weight=1.0
Mo 0.024480402 -0.089525778 -0.009284247 -0.787178949 1.379469573 2.762336605
S 1.580184231 0.867086510 1.677137791 -0.153286024 0.631639093 -1.784296454
Se 1.612163411 0.856607793 -1.575899489 -0.991863705 1.209015500 -1.940776563
Mo 3.119229760 0.035003252 -0.018092625 2.562689675 -1.476328038 2.852821555
S 4.880118616 1.024160774 1.545973455 -0.913081919 -2.744772606 1.187565530
Se 4.715296127 0.959061671 -1.723017917 0.678799356 -0.513677758 0.836104791
Mo 6.431533866 -0.019732263 0.049344569 -0.413835524 1.312099642 -0.929000667
S 8.077702739 0.909515625 1.663885408 -0.441831531 -0.960261465 -0.764171918
Se 8.083341214 1.025527939 -1.616554648 -0.770520237 -1.312808753 -0.455280989
Mo 1.521327074 2.865896552 -0.024900625 0.926672273 -3.422449674 2.912773072
S 3.135679868 3.601063668 1.542538754 -0.357900846 1.288621583 0.378371481
Se 3.177572671 3.601477175 -1.704374588 0.145881752 0.720922822 0.243266008
Mo 4.708858460 2.676589823 0.132045077 1.849578132 3.158488059 -2.865852436
S 6.457888963 3.748372059 1.632864682 -1.594748059 -0.480638012 -0.257507367
Se 6.409652516 3.728832638 -1.590627450 -0.744764178 -1.932068997 -0.739971635
Mo 7.910669760 2.682853835 0.146577318 2.576310883 2.260832522 -0.627610170
S 9.553473970 3.733847494 1.679758909 -0.120876456 -0.587997133 -0.966774335
Se 9.686254917 3.597911034 -1.694605837 -2.332237291 1.255825578 -0.144370198
Mo 3.105553316 5.535737858 -0.015299771 1.139179106 -1.298740430 1.165452729
S 4.731545718 6.438688215 1.615717080 0.013671601 -0.540826071 -1.105636709
Se 4.746281354 6.390303059 -1.578612712 -0.294405058 0.249403496 -2.333170345
Mo 6.307335834 5.481002343 -0.045616287 1.836448777 1.515315268 3.845007934
S 7.957380739 6.519432478 1.672921167 -0.316919723 -0.380567978 -1.734772830
Se 8.065113312 6.378605886 -1.635820636 -0.911275202 0.541891795 -0.148770390
Mo 9.539437746 5.498075111 0.099220654 0.725480622 0.686999386 -0.813318875
S 11.178790944 6.463756737 1.492425694 -0.263890653 -0.083801101 1.043205873
Se 11.234134728 6.533988704 -1.722027802 -1.046097339 -0.475586045 0.384376815
