dgebfa_mosdef.data - created by mBuild; units = real

47 atoms
48 bonds
82 angles
112 dihedrals
0 impropers

8 atom types
8 bond types
11 angle types
11 dihedral types
0 improper types

0.000000 25.072700 xlo xhi
0.000000 25.072700 ylo yhi
0.000000 25.072700 zlo zhi

Atoms

1 1 1 0.06 22.478100 15.337700 8.403320
2 1 2 -0.18 22.354800 15.524000 9.369440
3 1 3 -0.683 22.684000 16.381300 10.510400
4 1 4 0.205 21.771100 16.784800 9.718590
5 1 1 0.06 21.363500 15.321000 8.905020
6 1 2 0.14 21.590100 17.849600 10.625800
7 1 1 0.06 21.646300 16.098600 10.573300
8 1 5 -0.4 20.717900 17.459600 11.609800
9 1 1 0.03 22.435200 18.192000 11.165600
10 1 1 0.03 21.771700 18.823000 10.346700
11 1 6 -0.115 20.383700 18.432300 12.162600
12 1 6 -0.115 21.307800 19.473000 12.506000
13 1 6 -0.115 19.111900 18.539900 11.840100
14 1 6 -0.115 21.391800 20.695300 12.847800
15 1 7 0.115 22.151400 19.506200 12.363500
16 1 6 -0.115 18.815100 19.730000 12.324500
17 1 7 0.115 18.549300 17.872200 11.321000
18 1 6 -0.115 19.926700 20.703400 12.762200
19 1 7 0.115 22.219000 20.979000 13.594700
20 1 7 0.115 17.873800 19.576600 12.583400
21 1 2 -0.005 20.063400 21.070000 13.926000
22 1 6 -0.115 19.553400 21.754000 14.528300
23 1 6 -0.115 20.655600 22.380700 15.271100
24 1 6 -0.115 18.153600 21.531100 14.479700
25 1 6 -0.115 20.080000 23.134000 16.157100
26 1 7 0.115 21.641500 22.330200 15.111300
27 1 6 -0.115 18.028600 22.080000 15.607900
28 1 7 0.115 17.466800 20.924700 13.874100
29 1 6 -0.115 18.762300 22.983400 16.419800
30 1 7 0.115 20.554300 23.907800 16.457300
31 1 7 0.115 17.213100 22.283000 15.090500
32 1 5 -0.4 18.181900 24.040900 15.983700
33 1 2 0.14 16.786900 24.161000 16.569200
34 1 4 0.205 16.175800 24.443100 18.251000
35 1 1 0.03 16.411500 23.148900 16.623400
36 1 1 0.03 16.210700 23.854900 15.651100
37 1 3 -0.683 15.439400 25.095000 17.232000
38 1 2 -0.18 17.253800 24.929600 19.204600
39 1 1 0.06 15.481600 25.223300 19.016300
40 1 1 0.06 17.867200 24.916300 18.350300
41 1 1 0.06 17.381400 25.127500 20.508100
42 1 1 0.06 19.763500 20.134100 14.251400
43 1 1 0.06 20.229100 20.378700 14.691900
44 1 1 0.06 23.448500 15.439700 9.009550
45 1 1 0.06 17.206400 25.779800 18.641000
46 1 8 0.418 14.727900 24.472300 16.823600
47 1 8 0.418 23.403700 17.000800 10.771800

Bonds

1 1 2 1
2 1 2 5
3 1 2 44
4 2 3 4
5 3 3 47
6 4 4 2
7 4 4 6
8 1 4 7
9 1 6 9
10 1 6 10
11 2 8 6
12 5 8 11
13 6 11 12
14 6 11 13
15 7 12 15
16 7 13 17
17 6 14 12
18 7 14 19
19 6 16 13
20 7 16 20
21 6 18 14
22 6 18 16
23 8 21 18
24 8 21 22
25 1 21 42
26 1 21 43
27 6 22 23
28 6 22 24
29 6 23 25
30 7 23 26
31 6 24 27
32 7 24 28
33 7 25 30
34 7 27 31
35 6 29 25
36 6 29 27
37 5 32 29
38 2 32 33
39 1 33 35
40 1 33 36
41 4 34 33
42 4 34 38
43 1 34 39
44 2 37 34
45 3 37 46
46 1 38 40
47 1 38 41
48 1 38 45

Angles

1 1 1 2 4
2 2 1 2 5
3 2 1 2 44
4 3 2 4 3
5 4 2 4 6
6 1 2 4 7
7 3 3 4 6
8 5 3 4 7
9 1 4 2 5
10 1 4 2 44
11 6 4 3 47
12 3 4 6 8
13 1 4 6 9
14 1 4 6 10
15 2 5 2 44
16 1 6 4 7
17 7 6 8 11
18 5 8 6 9
19 5 8 6 10
20 8 8 11 12
21 8 8 11 13
22 2 9 6 10
23 9 11 12 14
24 10 11 12 15
25 9 11 13 16
26 10 11 13 17
27 9 12 11 13
28 9 12 14 18
29 10 12 14 19
30 9 13 16 18
31 10 13 16 20
32 10 14 12 15
33 9 14 18 16
34 8 14 18 21
35 10 16 13 17
36 8 16 18 21
37 10 18 14 19
38 10 18 16 20
39 11 18 21 22
40 5 18 21 42
41 5 18 21 43
42 8 21 22 23
43 8 21 22 24
44 5 22 21 42
45 5 22 21 43
46 9 22 23 25
47 10 22 23 26
48 9 22 24 27
49 10 22 24 28
50 9 23 22 24
51 9 23 25 29
52 10 23 25 30
53 9 24 27 29
54 10 24 27 31
55 10 25 23 26
56 9 25 29 27
57 8 25 29 32
58 10 27 24 28
59 8 27 29 32
60 10 29 25 30
61 10 29 27 31
62 7 29 32 33
63 3 32 33 34
64 5 32 33 35
65 5 32 33 36
66 3 33 34 37
67 4 33 34 38
68 1 33 34 39
69 1 34 33 35
70 1 34 33 36
71 6 34 37 46
72 1 34 38 40
73 1 34 38 41
74 1 34 38 45
75 2 35 33 36
76 3 37 34 38
77 5 37 34 39
78 1 38 34 39
79 2 40 38 41
80 2 40 38 45
81 2 41 38 45
82 2 42 21 43

Dihedrals

1 1 1 2 4 3
2 2 1 2 4 6
3 2 1 2 4 7
4 3 2 4 3 47
5 4 2 4 6 8
6 2 2 4 6 9
7 2 2 4 6 10
8 1 3 4 2 5
9 1 3 4 2 44
10 5 3 4 6 8
11 1 3 4 6 9
12 1 3 4 6 10
13 6 4 6 8 11
14 2 5 2 4 6
15 2 5 2 4 7
16 2 6 4 2 44
17 3 6 4 3 47
18 7 6 8 11 12
19 7 6 8 11 13
20 2 7 4 2 44
21 8 7 4 3 47
22 1 7 4 6 8
23 2 7 4 6 9
24 2 7 4 6 10
25 9 8 11 12 14
26 9 8 11 12 15
27 9 8 11 13 16
28 9 8 11 13 17
29 10 9 6 8 11
30 10 10 6 8 11
31 9 11 12 14 18
32 9 11 12 14 19
33 9 11 13 16 18
34 9 11 13 16 20
35 9 12 11 13 16
36 9 12 11 13 17
37 9 12 14 18 16
38 9 12 14 18 21
39 9 13 11 12 14
40 9 13 11 12 15
41 9 13 16 18 14
42 9 13 16 18 21
43 9 14 18 16 20
44 11 14 18 21 22
45 11 14 18 21 42
46 11 14 18 21 43
47 9 15 12 14 18
48 9 15 12 14 19
49 9 16 18 14 19
50 11 16 18 21 22
51 11 16 18 21 42
52 11 16 18 21 43
53 9 17 13 16 18
54 9 17 13 16 20
55 11 18 21 22 23
56 11 18 21 22 24
57 9 19 14 18 21
58 9 20 16 18 21
59 9 21 22 23 25
60 9 21 22 23 26
61 9 21 22 24 27
62 9 21 22 24 28
63 9 22 23 25 29
64 9 22 23 25 30
65 9 22 24 27 29
66 9 22 24 27 31
67 11 23 22 21 42
68 11 23 22 21 43
69 9 23 22 24 27
70 9 23 22 24 28
71 9 23 25 29 27
72 9 23 25 29 32
73 11 24 22 21 42
74 11 24 22 21 43
75 9 24 22 23 25
76 9 24 22 23 26
77 9 24 27 29 25
78 9 24 27 29 32
79 9 25 29 27 31
80 7 25 29 32 33
81 9 26 23 25 29
82 9 26 23 25 30
83 9 27 29 25 30
84 7 27 29 32 33
85 9 28 24 27 29
86 9 28 24 27 31
87 6 29 32 33 34
88 10 29 32 33 35
89 10 29 32 33 36
90 9 30 25 29 32
91 9 31 27 29 32
92 5 32 33 34 37
93 4 32 33 34 38
94 1 32 33 34 39
95 3 33 34 37 46
96 2 33 34 38 40
97 2 33 34 38 41
98 2 33 34 38 45
99 1 35 33 34 37
100 2 35 33 34 38
101 2 35 33 34 39
102 1 36 33 34 37
103 2 36 33 34 38
104 2 36 33 34 39
105 1 37 34 38 40
106 1 37 34 38 41
107 1 37 34 38 45
108 3 38 34 37 46
109 8 39 34 37 46
110 2 39 34 38 40
111 2 39 34 38 41
112 2 39 34 38 45

Masses

1 1.00800 # H
2 12.01100 # C
3 15.9994 # O
4 12.011 # C
5 15.9994 # O
6 12.01100 # C
7 1.00800 # H
8 1.00800 # H

Pair Coeffs

1 0.029999 2.500000
2 0.065998 3.500000
3 0.169996 3.120000
4 0.065998 3.500000
5 0.139997 2.900000
6 0.069998 3.550000
7 0.029999 2.420000
8 0.000000 10.000000

Bond Coeffs

1 339.991840 1.090000
2 319.992320 1.410000
3 552.986728 0.945000
4 267.993568 1.529000
5 449.989200 1.364000
6 468.988744 1.400000
7 366.991192 1.080000
8 316.992392 1.510000

Angle Coeffs

1 37.499100 110.700000
2 32.999208 107.800000
3 49.998800 109.500000
4 58.348624 112.700000
5 34.999160 109.500000
6 54.998680 108.500000
7 74.998200 111.000000
8 69.998320 120.000000
9 62.998488 120.000000
10 34.999160 120.000000
11 39.999040 109.500000

Dihedral Coeffs

1 0.000002 -0.000000 0.467988 -0.000000
2 0.000000 -0.000000 0.299993 -0.000000
3 -0.355996 -0.173994 0.491987 -0.000000
4 1.710959 -0.499988 0.662985 -0.000000
5 4.318893 -0.000000 -0.000000 -0.000000
6 0.649984 -0.249994 0.669984 -0.000000
7 -0.000000 2.999928 -0.000000 -0.000000
8 0.000000 -0.000000 0.449989 -0.000000
9 -0.000000 7.250000 -0.000000 -0.000000
10 0.000000 -0.000000 0.759982 -0.000000
11 -0.000000 -0.000000 -0.000000 -0.000000
