(written by ASE)

3 atoms
3 atom types

0.0      3.1989482918852916  xlo xhi
0.0      2.7703704049879736  ylo yhi
0.0      12.731047512836611  zlo zhi
     1.5994741363639602                       0                       0  xy xz yz

Atoms # atomic

     1   1 -0.00096332000000000004   0.0048898400000000003    0.054469639999999993
     2   2              1.59850542     0.92834360000000005      1.5842898099999998
     3   3      1.5985054299999999     0.92834346999999995     -1.6387594499999998


Velocities

     1                       0                       0                       0
     2                       0                       0                       0
     3                       0                       0                       0
