LAMMPS data file

6 atoms
5 bonds
4 angles
3 dihedrals
3 impropers

5 atom types
4 bond types
3 angle types
2 dihedral types
2 improper types

0.000000 10.0 xlo xhi
0.000000 10.0 ylo yhi
0.000000 10.0 zlo zhi

Masses

5 1.0 # -> 5
4 2.0 # -> 4
3 3.0 #
2 4.0 # -> 2
1 5.0 # -> 1

Atoms

1 1 5 1 0.0 1.0 0.0 0.0 # -> 5
2 1 5 1 0.0 2.0 0.0 0.0 # -> 5
3 1 4 1 0.0 3.0 0.0 0.0 # -> 4
4 1 3 1 0.0 4.0 0.0 0.0 # -> 3
5 1 2 1 0.0 5.0 0.0 0.0 # -> 2
6 1 1 1 0.0 6.0 0.0 0.0 # -> 1

Bonds

1 1 1 2 #
2 1 2 3 #
3 3 3 4 # -> 3
4 2 4 5 # -> 2
5 4 5 6 #

Angles

1 3 1 2 3 # -> 3
2 3 2 3 4 # -> 3
3 2 3 4 5 # -> 2
4 1 4 5 6 # -> 1

Dihedrals

1 2 1 2 3 4 # -> 2
2 2 2 3 4 5 # -> 2
3 1 3 4 5 6 # -> 1

Impropers

1 10 1 4 3 2 # -> 10
2 10 2 5 4 3 # -> 10
3 20 3 6 5 4 # -> 20

Pair Coeffs

5 1.0 1.0 # -> 5
4 2.0 2.0 # -> 4
3 3.0 3.0 #
2 4.0 4.0 # -> 2
1 5.0 5.0 # -> 1

Bond Coeffs

1 1.0 1.0 #
3 2.0 2.0 # -> 3
2 3.0 3.0 # -> 2
4 4.0 4.0 #

Angle Coeffs

3 1.0 1.0 # -> 3
2 2.0 2.0 # -> 2
1 3.0 3.0 # -> 1

Dihedral Coeffs

2 1.0 1.0 # -> 2
1 2.0 2.0 # -> 1

Improper Coeffs

10 1.0 1.0 # -> 10
20 2.0 2.0 # -> 20
