

4 atoms
0 bonds
0 angles
0 dihedrals

1 atom types
0 bond types
0 angle types
0 dihedral types

0 2.459512147 xlo xhi
0 100.0 ylo yhi
0 4.26 zlo zhi

Masses

1	12.011	#	C

Atoms

1 1 1 0 1.229756073 0 0
2 1 1 0 0 0 0.71
3 1 1 0 0 0 2.13
4 1 1 0 1.229756073 0 2.84
