ITEM: TIMESTEP
0
ITEM: NUMBER OF ATOMS
2
ITEM: BOX BOUNDS pp pp pp
0 10.0
0 10.0
0 10.0
ITEM: ATOMS id type x y z
1 1 0.0    0.0    0.0
2 1 0.0    0.0    0.0
