LAMMPS data file for S1_4-W800 (force field Dreiding.params+ )

2564 atoms
1760 bonds
1104 angles
404 dihedrals
0 impropers

12 atom types
10 bond types
17 angle types
19 dihedral types
0 improper types

0.000000 31.830879 xlo xhi
0.000000 31.830879 ylo yhi
0.000000 31.830879 zlo zhi

Atoms

1 1 1 -0.8476 23.897354504 13.459478388 8.802307782
2 1 2 0.4238 24.144675578 15.650248483 7.456432985
3 1 2 0.4238 21.583683647 12.820521779 7.916338160
4 2 1 -0.8476 22.220143496 9.124922222 30.910245730
5 2 2 0.4238 23.859947220 7.833008303 32.483941424
6 2 2 0.4238 21.426739967 10.910079582 32.599071598
7 3 1 -0.8476 24.523683599 3.559066073 26.640516907
8 3 2 0.4238 25.702108988 3.231415196 24.389485780
9 3 2 0.4238 25.230677331 6.108908764 26.943432190
10 4 1 -0.8476 5.033179215 25.805197779 19.656691475
11 4 2 0.4238 7.611138207 25.673475508 19.828990934
12 4 2 0.4238 5.188746035 27.091302958 21.909692965
13 5 1 -0.8476 25.251664058 27.017703645 18.171829085
14 5 2 0.4238 24.289098683 29.016001570 19.557953059
15 5 2 0.4238 26.844354201 26.636207797 20.248068764
16 6 1 -0.8476 6.493187880 5.581338673 13.543746580
17 6 2 0.4238 7.448373715 4.393052360 15.691857010
18 6 2 0.4238 8.123640479 7.626778991 13.495895378
19 7 1 -0.8476 28.610208844 3.097459993 15.734773852
20 7 2 0.4238 27.086474691 2.213640498 13.861435536
21 7 2 0.4238 26.580014287 3.587974381 17.294933490
22 8 1 -0.8476 14.410108114 12.073402665 25.187606983
23 8 2 0.4238 15.551305883 13.488923487 27.078948135
24 8 2 0.4238 16.688732805 10.795898048 25.142953824
25 9 1 -0.8476 24.850273958 0.562244947 6.627182063
26 9 2 0.4238 23.920881223 -1.686125504 7.388715776
27 9 2 0.4238 26.535781045 -0.631195250 4.977081796
28 10 1 -0.8476 6.847306155 24.063949767 31.414619061
29 10 2 0.4238 4.426602291 23.930818628 30.389643676
30 10 2 0.4238 5.701219420 24.854010393 33.586036604
31 11 1 -0.8476 24.973146259 21.319297378 18.544263277
32 11 2 0.4238 22.803028155 20.477230571 17.424661070
33 11 2 0.4238 25.128889775 19.069488240 19.797345344
34 12 1 -0.8476 1.814702131 31.401740530 6.027990989
35 12 2 0.4238 0.861716633 29.487051947 7.569202930
36 12 2 0.4238 4.169949888 31.408245418 7.387890145
37 13 1 -0.8476 7.620977946 17.987456523 11.906678233
38 13 2 0.4238 8.202870442 20.207855558 10.605942280
39 13 2 0.4238 9.386993452 18.606694563 13.772197194
40 14 1 -0.8476 4.632479699 30.834433493 3.360327826
41 14 2 0.4238 5.903289076 33.035887594 3.274554745
42 14 2 0.4238 5.371086252 30.341983824 5.764450952
43 15 1 -0.8476 24.828110915 27.551157991 6.337046439
44 15 2 0.4238 24.086355835 26.361484894 8.584738748
45 15 2 0.4238 26.554793879 28.761827508 7.823245252
46 16 1 -0.8476 12.232112955 9.963151752 11.850602032
47 16 2 0.4238 13.391158824 8.157218270 10.389724688
48 16 2 0.4238 12.231911166 8.081782818 13.688793305
49 17 1 -0.8476 28.251225469 15.047249941 31.404862092
50 17 2 0.4238 29.152367760 13.076359837 30.016428283
51 17 2 0.4238 27.200780481 16.246026785 29.349267273
52 18 1 -0.8476 20.829702018 26.371209219 17.117380701
53 18 2 0.4238 19.913771679 26.366735898 19.565568136
54 18 2 0.4238 19.914107006 28.731044950 16.444849516
55 19 1 -0.8476 15.394660069 0.953649791 18.346153300
56 19 2 0.4238 17.603915423 0.579240513 19.596299118
57 19 2 0.4238 16.706644794 0.678899643 16.128423061
58 20 1 -0.8476 31.489865075 19.992445861 8.380238570
59 20 2 0.4238 33.066725344 22.035815333 8.722514759
60 20 2 0.4238 31.374610688 20.353575583 11.013912151
61 21 1 -0.8476 8.840046062 2.820279961 3.978273189
62 21 2 0.4238 9.484133229 1.922710073 6.285737260
63 21 2 0.4238 6.679185226 3.837776139 5.001162837
64 22 1 -0.8476 17.352999701 22.308144237 1.155739081
65 22 2 0.4238 16.215261197 20.520417877 -0.269647085
66 22 2 0.4238 19.619447795 22.381759533 -0.176264941
67 23 1 -0.8476 12.604480987 1.758961117 2.284780085
68 23 2 0.4238 15.111020359 1.094087694 2.120450374
69 23 2 0.4238 12.067835960 0.819961743 4.641742907
70 24 1 -0.8476 4.815626937 28.894386068 8.876698906
71 24 2 0.4238 7.158038978 28.247937676 8.048387790
72 24 2 0.4238 3.911191899 27.882192162 6.649820321
73 25 1 -0.8476 30.699153725 8.228266495 0.788067514
74 25 2 0.4238 28.819046116 7.770513085 2.508901378
75 25 2 0.4238 29.254946130 10.071989101 -0.214967391
76 26 1 -0.8476 3.703819436 9.366772511 26.990394166
77 26 2 0.4238 4.585579427 11.693250525 26.202658537
78 26 2 0.4238 5.942403373 8.113805145 27.354321291
79 27 1 -0.8476 18.216284622 6.711814404 26.800612181
80 27 2 0.4238 17.719063926 6.585407970 24.226271124
81 27 2 0.4238 16.168507672 5.031223885 27.316345667
82 28 1 -0.8476 27.852065452 28.335441923 20.343986757
83 28 2 0.4238 30.176728306 27.910435073 19.226259204
84 28 2 0.4238 28.666378624 28.122472939 22.865857552
85 29 1 -0.8476 8.210303908 16.510843190 16.422354028
86 29 2 0.4238 10.129976147 18.185102511 15.903568617
87 29 2 0.4238 6.701608024 17.328546085 14.415414577
88 30 1 -0.8476 25.906362419 17.476631369 16.626995515
89 30 2 0.4238 25.902241038 15.347454067 15.144208189
90 30 2 0.4238 25.142638635 16.145508270 18.720116387
91 31 1 -0.8476 1.281270166 1.591554342 2.591799751
92 31 2 0.4238 2.136341804 -0.275917070 1.004417648
93 31 2 0.4238 0.213494388 2.931441336 0.671363987
94 32 1 -0.8476 31.548931155 29.185475047 2.287936457
95 32 2 0.4238 31.619574927 28.157582236 -0.011238063
96 32 2 0.4238 31.615794622 31.509001679 1.171445225
97 33 1 -0.8476 20.058168293 29.028452807 13.101842014
98 33 2 0.4238 22.074587887 30.533414894 12.545745152
99 33 2 0.4238 20.221874762 27.430440200 11.101856086
100 34 1 -0.8476 8.981411452 2.988539498 17.204073676
101 34 2 0.4238 8.330247136 5.419505194 17.910448717
102 34 2 0.4238 6.577035024 2.135815017 17.658094109
103 35 1 -0.8476 15.399859881 6.302196038 0.620909778
104 35 2 0.4238 15.580987324 8.649081286 -0.325145261
105 35 2 0.4238 12.863221977 6.917573878 0.452551508
106 36 1 -0.8476 28.435127449 16.599947696 25.543802345
107 36 2 0.4238 28.264157431 17.971348537 27.699363194
108 36 2 0.4238 27.072257685 18.308094310 24.059452475
109 37 1 -0.8476 27.604437686 23.973987873 19.623583499
110 37 2 0.4238 27.980792920 25.396634874 17.534889848
111 37 2 0.4238 30.086808604 24.127400862 20.289524329
112 38 1 -0.8476 30.924615847 19.643076752 21.464353236
113 38 2 0.4238 32.776837833 19.507697357 19.650568322
114 38 2 0.4238 31.687103584 22.073493247 22.128866276
115 39 1 -0.8476 31.563872958 4.934959447 9.887377223
116 39 2 0.4238 29.214586098 4.144254416 9.215637668
117 39 2 0.4238 31.791298399 6.194691500 7.603360690
118 40 1 -0.8476 16.377675311 3.073677891 15.240834163
119 40 2 0.4238 18.842385362 3.337585557 14.416582171
120 40 2 0.4238 15.538422789 4.534835752 13.223341894
121 41 1 -0.8476 22.714528895 4.656337684 10.937556590
122 41 2 0.4238 22.739810174 5.080673863 13.475116979
123 41 2 0.4238 24.446421196 6.579820220 11.221934817
124 42 1 -0.8476 16.508594119 10.856112371 15.568980422
125 42 2 0.4238 14.422122088 9.812049551 14.570916055
126 42 2 0.4238 15.361897010 10.810238902 17.908949954
127 43 1 -0.8476 8.871927550 31.151296609 7.079267407
128 43 2 0.4238 7.084403620 31.096956836 8.973971880
129 43 2 0.4238 8.055622062 28.952978977 5.886939233
130 44 1 -0.8476 30.779426988 8.507860222 12.053223602
131 44 2 0.4238 30.916166180 5.955103076 12.585216217
132 44 2 0.4238 29.314653109 8.580039518 14.169974207
133 45 1 -0.8476 28.889246213 3.551690562 27.151666242
134 45 2 0.4238 27.696127939 1.470449530 28.189039166
135 45 2 0.4238 31.362448041 3.297353279 28.031700629
136 46 1 -0.8476 15.781460242 11.277035744 30.296229891
137 46 2 0.4238 13.341718628 10.859091473 29.549099313
138 46 2 0.4238 15.099886871 13.708530647 30.931509977
139 47 1 -0.8476 8.878234863 21.851497415 28.888534292
140 47 2 0.4238 7.137955332 21.055857348 27.191744925
141 47 2 0.4238 9.834113722 23.518371894 27.190105706
142 48 1 -0.8476 30.666671173 12.258799893 17.586278488
143 48 2 0.4238 33.123890992 12.959514127 17.560979077
144 48 2 0.4238 31.396176792 9.823226649 17.909124187
145 49 1 -0.8476 2.063863869 9.444976462 15.828651684
146 49 2 0.4238 1.569366707 8.075279148 13.723494628
147 49 2 0.4238 3.838090293 7.598845617 16.064514353
148 50 1 -0.8476 15.641427958 27.639370188 10.985498765
149 50 2 0.4238 14.854471834 25.131702706 10.965654497
150 50 2 0.4238 13.699543513 28.236118995 12.568064892
151 51 1 -0.8476 5.378599850 24.644668519 13.566276010
152 51 2 0.4238 7.052131654 23.243798774 14.878049637
153 51 2 0.4238 4.142589767 22.636217010 12.454051406
154 52 1 -0.8476 23.728462643 26.494164363 22.363164015
155 52 2 0.4238 25.455263048 24.580082032 21.864880310
156 52 2 0.4238 25.781149690 28.027704575 22.659544059
157 53 1 -0.8476 22.481798649 3.444604170 3.828031890
158 53 2 0.4238 24.619874015 2.015429216 4.002804968
159 53 2 0.4238 21.100760188 1.214745032 3.537477623
160 54 1 -0.8476 14.631759136 4.600613952 18.366270139
161 54 2 0.4238 15.876875870 6.866228725 18.282232998
162 54 2 0.4238 16.780801938 3.115813768 18.722793131
163 55 1 -0.8476 12.219421342 5.761942200 21.642165252
164 55 2 0.4238 9.899666356 4.789768070 21.066421506
165 55 2 0.4238 12.298209342 7.200255592 19.524550952
166 56 1 -0.8476 24.528788792 8.473901559 11.986695936
167 56 2 0.4238 25.036735431 8.957557450 14.492953922
168 56 2 0.4238 22.646256561 6.814560836 12.670120635
169 57 1 -0.8476 20.532273984 1.858897134 30.524152860
170 57 2 0.4238 21.710516109 2.965252238 32.587564532
171 57 2 0.4238 19.416161918 0.497980415 32.523709707
172 58 1 -0.8476 8.787864323 13.200777720 26.461679225
173 58 2 0.4238 9.589493202 15.230102876 27.895588302
174 58 2 0.4238 7.629030277 14.619414371 24.637462402
175 59 1 -0.8476 18.463564463 14.703650291 3.083728810
176 59 2 0.4238 18.562096450 12.841014564 1.242049491
177 59 2 0.4238 16.021997891 15.456491718 2.690597634
178 60 1 -0.8476 29.842160531 0.958811835 6.543199870
179 60 2 0.4238 27.688237567 -0.406971559 7.166033972
180 60 2 0.4238 31.643904800 -0.938304518 6.725958578
181 61 1 -0.8476 21.136736841 31.724169512 20.243245742
182 61 2 0.4238 23.505152560 31.941454653 19.108043262
183 61 2 0.4238 19.872734275 30.707158044 18.223618709
184 62 1 -0.8476 11.502368601 19.624101335 23.085924718
185 62 2 0.4238 12.522420777 17.257704151 23.610145791
186 62 2 0.4238 10.718982338 18.755643646 20.768208485
187 63 1 -0.8476 22.819309298 5.168712054 20.986605768
188 63 2 0.4238 24.306851810 7.175958729 20.335625646
189 63 2 0.4238 20.635283518 5.986579538 19.808625477
190 64 1 -0.8476 11.370190807 10.091388660 16.823158332
191 64 2 0.4238 10.930473262 12.629549716 16.333557618
192 64 2 0.4238 11.135799593 10.569736836 19.353981469
193 65 1 -0.8476 5.400850419 20.147376563 30.792810978
194 65 2 0.4238 3.005906629 19.664203735 31.469374959
195 65 2 0.4238 4.654650977 21.891521676 28.937362672
196 66 1 -0.8476 0.409643505 13.468460145 5.964710697
197 66 2 0.4238 0.945125900 10.942378417 5.503173096
198 66 2 0.4238 1.443067388 13.037490331 8.266366001
199 67 1 -0.8476 19.215600081 27.730482782 6.683973445
200 67 2 0.4238 21.303156130 28.182919709 5.219682292
201 67 2 0.4238 18.127579219 26.604032178 4.568249768
202 68 1 -0.8476 13.657245990 10.141867238 7.765793815
203 68 2 0.4238 15.072311899 9.464326360 5.683661567
204 68 2 0.4238 12.822855824 7.716645187 8.201952115
205 69 1 -0.8476 11.902737570 24.775588602 2.519047830
206 69 2 0.4238 9.459227386 25.506710733 2.697580116
207 69 2 0.4238 12.009193939 25.377321493 5.001522882
208 70 1 -0.8476 29.686395127 11.035733625 8.422691118
209 70 2 0.4238 31.951942948 12.112668065 9.071250662
210 70 2 0.4238 30.605986625 9.001975704 9.798369296
211 71 1 -0.8476 31.173671442 8.531690393 4.553076674
212 71 2 0.4238 31.957477403 7.612347980 6.872256739
213 71 2 0.4238 33.594822919 8.924138770 3.644748757
214 72 1 -0.8476 12.960963696 25.993070483 8.824921285
215 72 2 0.4238 13.986808856 27.224273365 6.792551503
216 72 2 0.4238 11.300240886 27.973218421 8.747458931
217 73 1 -0.8476 31.273622564 30.059178461 17.939366539
218 73 2 0.4238 29.233477390 29.335551998 16.424666664
219 73 2 0.4238 32.763422198 30.919403424 16.041365748
220 74 1 -0.8476 20.011681352 0.291682528 6.033098376
221 74 2 0.4238 17.925375312 -1.256282733 6.316436917
222 74 2 0.4238 20.603153307 -1.322456016 4.103662355
223 75 1 -0.8476 15.686282477 27.145441409 22.094668907
224 75 2 0.4238 18.260427509 26.922456224 22.663598329
225 75 2 0.4238 15.449063872 27.168322206 24.713508828
226 76 1 -0.8476 17.812023029 13.225354903 11.717183469
227 76 2 0.4238 16.682008313 13.793640665 13.941626062
228 76 2 0.4238 19.710212506 14.938552119 12.236313450
229 77 1 -0.8476 16.625835565 22.424791490 10.234664147
230 77 2 0.4238 14.410936285 21.997817903 11.571036347
231 77 2 0.4238 16.954424849 24.882461857 10.984323065
232 78 1 -0.8476 13.031343996 18.765024170 17.597673822
233 78 2 0.4238 13.990610217 16.434965803 17.193947988
234 78 2 0.4238 12.694269033 19.276640665 15.053092946
235 79 1 -0.8476 15.836032984 17.444290201 8.699451475
236 79 2 0.4238 15.391481900 19.958648876 8.146615699
237 79 2 0.4238 14.731534613 17.634554963 11.073183809
238 80 1 -0.8476 24.885859247 25.253457969 11.900802349
239 80 2 0.4238 23.875615922 27.119913788 13.304821780
240 80 2 0.4238 26.465960969 27.153265265 11.251897487
241 81 1 -0.8476 26.503503592 8.142786912 18.670851022
242 81 2 0.4238 27.675628542 9.331676691 20.631118580
243 81 2 0.4238 28.619527162 8.127156558 17.129788034
244 82 1 -0.8476 18.705883117 19.502921234 6.454268831
245 82 2 0.4238 18.920865763 17.425402765 4.837259937
246 82 2 0.4238 20.916951616 18.912663266 7.713034444
247 83 1 -0.8476 0.215642648 29.023065766 10.368645769
248 83 2 0.4238 1.029289955 27.448708761 12.316403131
249 83 2 0.4238 -1.716417490 27.567893311 9.433393501
250 84 1 -0.8476 8.808042416 17.383616675 28.891154583
251 84 2 0.4238 7.623903144 19.555514316 29.688016257
252 84 2 0.4238 6.670571349 15.913532808 28.555923802
253 85 1 -0.8476 12.690508473 31.497121592 27.146197841
254 85 2 0.4238 13.732920469 33.829575178 27.255334912
255 85 2 0.4238 10.154410797 32.187890823 26.746289645
256 86 1 -0.8476 28.543403176 27.314950935 7.582704258
257 86 2 0.4238 26.643274089 27.237101188 9.367898244
258 86 2 0.4238 29.364408762 25.200686871 8.892684963
259 87 1 -0.8476 25.887084188 20.059172007 10.777414011
260 87 2 0.4238 24.571036385 18.139485824 11.979486017
261 87 2 0.4238 26.064063511 18.569244805 8.614671227
262 88 1 -0.8476 11.341591823 15.727308516 25.696132781
263 88 2 0.4238 13.709149554 14.670954527 25.429187244
264 88 2 0.4238 12.357421450 18.047419107 26.287994572
265 89 1 -0.8476 12.626835758 23.989165345 17.128346778
266 89 2 0.4238 10.730268644 25.734434324 16.701832121
267 89 2 0.4238 12.166350507 24.237176976 19.655022528
268 90 1 -0.8476 21.955777985 20.218863518 30.070832409
269 90 2 0.4238 21.434285397 22.837779424 29.713318777
270 90 2 0.4238 24.338974963 20.721222828 29.180121279
271 91 1 -0.8476 17.590411798 20.667129268 14.770071562
272 91 2 0.4238 17.231936179 22.850334189 13.337765894
273 91 2 0.4238 16.013273046 19.222346891 13.217851669
274 92 1 -0.8476 21.065970306 15.928337893 9.857703429
275 92 2 0.4238 18.467955689 15.879595057 10.045645897
276 92 2 0.4238 21.466955279 14.265426109 11.838037783
277 93 1 -0.8476 18.989995330 7.341491452 14.958710302
278 93 2 0.4238 20.013210224 5.763106269 13.071075163
279 93 2 0.4238 16.670095418 6.923196206 13.905015647
280 94 1 -0.8476 20.307698004 12.846849971 31.688777611
281 94 2 0.4238 22.106260541 13.733531666 29.995522953
282 94 2 0.4238 18.957376406 15.059778684 32.022267023
283 95 1 -0.8476 2.880509556 4.930677090 6.799593542
284 95 2 0.4238 3.432462596 6.477346602 4.842287876
285 95 2 0.4238 0.475821189 4.361328442 5.932186226
286 96 1 -0.8476 20.086511242 15.088311472 25.340876382
287 96 2 0.4238 19.395295641 14.844829943 27.797590406
288 96 2 0.4238 22.408901970 16.085080643 25.823768206
289 97 1 -0.8476 0.970024120 0.362705327 27.348862055
290 97 2 0.4238 1.989283378 1.606704658 25.222385067
291 97 2 0.4238 2.926049901 -1.485832969 27.179576035
292 98 1 -0.8476 31.086371253 18.968275914 30.637249857
293 98 2 0.4238 33.069334716 17.769207649 29.527352437
294 98 2 0.4238 29.962637414 19.133110271 28.300139952
295 99 1 -0.8476 22.196785745 16.357993376 18.506886730
296 99 2 0.4238 23.685149473 18.474879739 18.687412460
297 99 2 0.4238 21.121928273 16.748175755 20.850330620
298 100 1 -0.8476 5.231934812 16.557276643 19.784178258
299 100 2 0.4238 3.836104638 18.278168287 21.208282578
300 100 2 0.4238 7.564612005 17.501229837 20.455638725
301 101 1 -0.8476 8.649122500 10.340305910 24.199191797
302 101 2 0.4238 8.342965006 12.995732785 24.036718869
303 101 2 0.4238 6.340619877 9.923263370 23.128890596
304 102 1 -0.8476 4.190118210 25.661248266 27.483367412
305 102 2 0.4238 6.489682701 25.523377359 28.651207235
306 102 2 0.4238 3.149093685 27.520530608 28.975823926
307 103 1 -0.8476 2.839379975 13.819020858 12.017832123
308 103 2 0.4238 1.737829616 16.154452831 12.237984964
309 103 2 0.4238 1.262867850 13.151693012 9.980811151
310 104 1 -0.8476 16.978478685 4.619449550 11.852794318
311 104 2 0.4238 15.222101128 2.849944201 12.473198396
312 104 2 0.4238 17.184270035 5.241577647 14.391333986
313 105 1 -0.8476 4.059308695 5.947051444 17.363014202
314 105 2 0.4238 1.989855737 5.628534993 18.934752037
315 105 2 0.4238 5.664683009 4.795057308 18.974148363
316 106 1 -0.8476 5.623711817 0.874879809 16.183099588
317 106 2 0.4238 6.534920555 -0.850688814 14.514619287
318 106 2 0.4238 3.138805381 0.028080281 16.175222993
319 107 1 -0.8476 3.113184582 22.464623362 24.895528741
320 107 2 0.4238 0.587896108 23.097004696 24.680837425
321 107 2 0.4238 2.280147093 20.365482514 26.193876669
322 108 1 -0.8476 7.771694882 17.602573865 7.601078397
323 108 2 0.4238 6.553496121 19.709164732 6.601777022
324 108 2 0.4238 9.995187158 18.854510451 7.732505095
325 109 1 -0.8476 1.960166887 3.894646156 23.244364173
326 109 2 0.4238 2.033313185 3.529522363 20.646842139
327 109 2 0.4238 4.005949999 5.388933224 22.778436979
328 110 1 -0.8476 10.038075890 22.092670905 15.708012861
329 110 2 0.4238 11.645241105 20.934745608 14.149483570
330 110 2 0.4238 11.448357419 21.396703700 17.824581261
331 111 1 -0.8476 7.443527753 29.450008475 11.111480696
332 111 2 0.4238 8.985180395 29.615801965 8.963277277
333 111 2 0.4238 9.349982155 30.732729972 12.368443444
334 112 1 -0.8476 14.299666655 31.089973431 4.347031076
335 112 2 0.4238 14.109490730 30.497222636 1.821510894
336 112 2 0.4238 14.608361947 33.542916706 3.755958865
337 113 1 -0.8476 3.800092725 20.598093510 5.153170877
338 113 2 0.4238 4.178753287 18.573534648 6.699270623
339 113 2 0.4238 1.711576626 19.402199596 4.080431044
340 114 1 -0.8476 25.612550282 16.029975960 5.856681134
341 114 2 0.4238 25.303266996 18.262106897 7.221238775
342 114 2 0.4238 25.505948139 17.503966478 3.742205489
343 115 1 -0.8476 29.365039554 7.865237143 22.739497494
344 115 2 0.4238 29.090366049 8.896279061 25.073959743
345 115 2 0.4238 31.817491673 8.708416318 22.482938083
346 116 1 -0.8476 22.171785790 22.513549893 12.779945379
347 116 2 0.4238 22.197637926 24.733625296 14.102704823
348 116 2 0.4238 23.124575768 23.536635577 10.623106812
349 117 1 -0.8476 12.115736160 15.756870067 14.981421144
350 117 2 0.4238 10.017426924 16.208688269 13.556295238
351 117 2 0.4238 13.794425440 15.883685469 12.994033818
352 118 1 -0.8476 24.757218265 11.680001443 14.943744405
353 118 2 0.4238 23.813814505 11.704379081 17.337423129
354 118 2 0.4238 23.737657002 14.032973357 14.476312302
355 119 1 -0.8476 27.663537302 4.297141244 22.545808440
356 119 2 0.4238 25.446476085 5.564525056 22.028317000
357 119 2 0.4238 28.123093711 6.092182099 24.377951539
358 120 1 -0.8476 24.137247516 20.367809947 22.517026978
359 120 2 0.4238 26.156820924 18.724541706 22.564447940
360 120 2 0.4238 22.739861488 18.950577218 20.846874011
361 121 1 -0.8476 12.155093462 5.582805898 11.623733744
362 121 2 0.4238 10.740207510 6.072061107 9.442382940
363 121 2 0.4238 11.507083576 3.155967417 12.061605207
364 122 1 -0.8476 8.190548795 10.061108926 5.021167929
365 122 2 0.4238 9.429450220 12.294874540 5.240115912
366 122 2 0.4238 8.830069936 9.310164693 7.433086607
367 123 1 -0.8476 25.404320328 20.271076429 1.687441612
368 123 2 0.4238 27.025383761 22.160552054 2.377023446
369 123 2 0.4238 26.876926009 18.785146911 3.198030857
370 124 1 -0.8476 9.786528263 25.000876057 22.478169316
371 124 2 0.4238 8.049376981 23.045277602 22.385116201
372 124 2 0.4238 8.159994122 26.122342495 24.105515450
373 125 1 -0.8476 12.024439145 9.377014187 27.212336945
374 125 2 0.4238 11.537852989 7.636524897 29.067920549
375 125 2 0.4238 14.441532313 8.549844060 26.692802941
376 126 1 -0.8476 23.016877724 17.405487412 2.060744197
377 126 2 0.4238 21.329383211 19.374051150 2.660155995
378 126 2 0.4238 21.177661869 15.643499218 1.699164616
379 127 1 -0.8476 11.060917341 12.390044409 2.359530615
380 127 2 0.4238 9.629801467 14.507215886 2.005441219
381 127 2 0.4238 12.040010336 13.269303354 4.634416819
382 128 1 -0.8476 27.578708720 3.100351733 2.356819656
383 128 2 0.4238 25.103763581 3.244839894 1.558948435
384 128 2 0.4238 27.926670631 1.108867575 0.742824925
385 129 1 -0.8476 11.914419413 1.142696978 10.117270467
386 129 2 0.4238 11.799421623 0.923588363 7.574860607
387 129 2 0.4238 9.644728913 -0.150554891 9.856836498
388 130 1 -0.8476 2.160501338 16.510025808 31.431069510
389 130 2 0.4238 1.148235664 17.971905095 33.285971400
390 130 2 0.4238 4.092930498 18.098894864 30.759432315
391 131 1 -0.8476 15.265878741 21.567052832 18.051230438
392 131 2 0.4238 15.101156050 20.721962087 15.579133621
393 131 2 0.4238 17.862663267 21.443035879 17.571931075
394 132 1 -0.8476 26.227005939 29.976330041 29.836427809
395 132 2 0.4238 24.862580162 29.077856126 27.745606610
396 132 2 0.4238 27.610896331 31.164817560 28.015053205
397 133 1 -0.8476 2.330086109 27.113314899 23.977050123
398 133 2 0.4238 4.021852246 28.600183970 22.744724791
399 133 2 0.4238 0.119535618 28.271872706 23.345092249
400 134 1 -0.8476 31.081888971 5.089627132 19.784627333
401 134 2 0.4238 30.009428071 3.034192788 18.651427179
402 134 2 0.4238 28.951192677 5.923099484 21.057335392
403 135 1 -0.8476 8.873354800 28.433582954 28.639777043
404 135 2 0.4238 11.120950949 28.673746789 27.396804530
405 135 2 0.4238 9.161954589 25.859780848 28.415359897
406 136 1 -0.8476 18.582160914 2.970897750 2.562417677
407 136 2 0.4238 20.315544743 1.025679200 2.165973710
408 136 2 0.4238 20.529751657 4.320369483 3.687121620
409 137 1 -0.8476 12.558352468 20.506528743 5.460041490
410 137 2 0.4238 12.851376739 18.440507613 3.864594839
411 137 2 0.4238 14.990897423 21.376397979 5.752024861
412 138 1 -0.8476 18.286399296 20.950918056 28.662589159
413 138 2 0.4238 17.014439318 21.514086149 26.418660444
414 138 2 0.4238 16.416734019 19.637271650 29.905774473
415 139 1 -0.8476 12.582226016 25.661648404 26.524467383
416 139 2 0.4238 13.771096344 25.330751669 24.248048774
417 139 2 0.4238 14.639777161 24.585292967 27.707823979
418 140 1 -0.8476 0.746128496 2.098272740 12.985938735
419 140 2 0.4238 2.649956585 1.660684664 14.664868996
420 140 2 0.4238 -0.231117201 3.824907925 14.729380210
421 141 1 -0.8476 1.051400771 24.020382781 31.344678416
422 141 2 0.4238 -0.171292977 25.852706000 32.700278342
423 141 2 0.4238 3.239212669 25.285302933 31.754511587
424 142 1 -0.8476 4.438242958 27.451696468 1.418207087
425 142 2 0.4238 3.498634477 26.703630187 -0.974185528
426 142 2 0.4238 6.984356625 27.406626463 0.805981956
427 143 1 -0.8476 27.107479539 6.194385556 0.248774769
428 143 2 0.4238 26.556213853 8.681067095 0.844696915
429 143 2 0.4238 25.815523863 4.894272172 2.064147415
430 144 1 -0.8476 22.046698784 22.643358428 2.266249340
431 144 2 0.4238 23.099870664 21.725187448 0.044403776
432 144 2 0.4238 19.970610012 21.437034428 1.418870924
433 145 1 -0.8476 30.464610557 18.419444424 4.114064271
434 145 2 0.4238 30.414446533 16.136485158 5.273644357
435 145 2 0.4238 27.841189543 18.837118530 4.450427994
436 146 1 -0.8476 9.445380358 7.220851361 15.090637034
437 146 2 0.4238 9.158681451 6.612475820 12.507564308
438 146 2 0.4238 7.572683371 8.897497492 14.584707676
439 147 1 -0.8476 21.027370125 12.766472306 14.918979778
440 147 2 0.4238 19.745504117 10.654589515 15.500957278
441 147 2 0.4238 19.816743153 12.901559035 12.636801421
442 148 1 -0.8476 28.402091110 22.890533726 9.849992679
443 148 2 0.4238 26.827819357 24.832448599 9.077711155
444 148 2 0.4238 26.731250103 21.208023724 8.889020530
445 149 1 -0.8476 31.472222911 21.470604683 17.602829248
446 149 2 0.4238 29.177207283 22.803539313 17.779894606
447 149 2 0.4238 30.566680275 19.790341939 19.388528523
448 150 1 -0.8476 2.541439567 21.223984455 28.146427723
449 150 2 0.4238 3.479277275 23.537118587 27.323317803
450 150 2 0.4238 4.275968036 20.005378159 26.624395734
451 151 1 -0.8476 30.440646659 16.159245776 11.976896012
452 151 2 0.4238 32.161833676 17.567547065 10.557043671
453 151 2 0.4238 31.170164247 14.218255398 10.454739413
454 152 1 -0.8476 6.627636718 7.666973087 20.431396943
455 152 2 0.4238 9.155083718 8.010125472 20.618617545
456 152 2 0.4238 6.646992456 7.402379469 23.058409901
457 153 1 -0.8476 12.771775986 15.757089602 1.056498456
458 153 2 0.4238 14.021712399 14.015475646 2.563506701
459 153 2 0.4238 14.889071153 17.132830778 1.518153629
460 154 1 -0.8476 2.270901034 1.028636517 9.291934617
461 154 2 0.4238 3.113528849 3.427611838 9.932849427
462 154 2 0.4238 0.973481721 2.377886707 7.458655955
463 155 1 -0.8476 17.027330896 24.011153312 25.214671203
464 155 2 0.4238 17.206919590 22.075109064 23.507755593
465 155 2 0.4238 18.609058487 25.406136005 23.642759393
466 156 1 -0.8476 2.078353832 10.213274878 1.596170566
467 156 2 0.4238 0.178582781 11.965826010 1.668397120
468 156 2 0.4238 1.012488864 8.855858594 -0.332336481
469 157 1 -0.8476 22.841626294 10.874281701 24.666378929
470 157 2 0.4238 24.107774084 12.483120333 23.031300642
471 157 2 0.4238 25.150098687 10.971226838 25.828171283
472 158 1 -0.8476 5.485615969 15.020556814 22.775739193
473 158 2 0.4238 2.989748954 15.565581617 23.147312457
474 158 2 0.4238 5.506131758 13.246708071 24.688391064
475 159 1 -0.8476 18.229297066 30.563378480 26.921272415
476 159 2 0.4238 19.413906439 29.274874446 24.946182708
477 159 2 0.4238 18.630689397 28.442174149 28.499192925
478 160 1 -0.8476 6.213990725 3.824246743 9.022763955
479 160 2 0.4238 6.124782560 5.826331789 7.399344822
480 160 2 0.4238 7.641057401 2.319823063 7.370576084
481 161 1 -0.8476 16.219133033 27.421667922 4.991784387
482 161 2 0.4238 16.063028419 25.541830504 3.239052838
483 161 2 0.4238 14.318291832 28.911002396 3.966208597
484 162 1 -0.8476 16.353954663 24.358776283 28.791040274
485 162 2 0.4238 15.742863744 26.820017637 29.456042199
486 162 2 0.4238 17.587787966 25.422795620 26.723509638
487 163 1 -0.8476 14.434915830 23.020365985 14.086693456
488 163 2 0.4238 15.720947932 25.057576875 13.189102716
489 163 2 0.4238 12.757886080 24.672872405 15.075879190
490 164 1 -0.8476 23.876292159 1.398067170 12.594295303
491 164 2 0.4238 24.917442914 0.668446204 14.887737665
492 164 2 0.4238 21.669019979 2.304375656 13.650896661
493 165 1 -0.8476 18.362422005 30.633488626 31.217162010
494 165 2 0.4238 17.279508254 32.287604356 32.877061695
495 165 2 0.4238 18.948787683 32.611661028 29.576417905
496 166 1 -0.8476 5.546120824 14.457762230 27.229034499
497 166 2 0.4238 7.222356434 16.303423177 26.606428112
498 166 2 0.4238 4.043180693 15.090334723 25.231605591
499 167 1 -0.8476 22.212125567 29.113998676 26.502422882
500 167 2 0.4238 23.775073697 30.672599633 25.114598820
501 167 2 0.4238 23.861454716 27.138046994 26.536857965
502 168 1 -0.8476 2.530464975 18.087937635 9.400059644
503 168 2 0.4238 3.779264201 19.604753155 11.078977574
504 168 2 0.4238 2.914186882 19.853714708 7.527238898
505 169 1 -0.8476 10.434315966 28.434827807 0.800188887
506 169 2 0.4238 8.724067334 26.763696231 -0.025734135
507 169 2 0.4238 10.789179604 27.053241657 3.004519693
508 170 1 -0.8476 3.701034127 20.141036493 18.104621063
509 170 2 0.4238 4.487789010 22.455427733 18.883915742
510 170 2 0.4238 2.986901303 19.787117658 20.623316189
511 171 1 -0.8476 17.853746559 2.505551257 8.653547078
512 171 2 0.4238 17.394190626 2.198637530 11.163462453
513 171 2 0.4238 20.202781530 1.551163254 8.857914442
514 172 1 -0.8476 18.507167370 15.827811914 20.159408638
515 172 2 0.4238 16.532776039 16.998232176 21.316445421
516 172 2 0.4238 16.644441832 15.102424573 18.618484181
517 173 1 -0.8476 6.716240731 25.609064985 3.273033892
518 173 2 0.4238 4.732894715 24.177705169 4.210930227
519 173 2 0.4238 8.323354343 24.862513138 5.092671820
520 174 1 -0.8476 7.574530130 19.407088392 25.150629396
521 174 2 0.4238 6.379467295 17.250216113 24.242415143
522 174 2 0.4238 8.625663761 18.021210387 27.112080993
523 175 1 -0.8476 2.374391073 5.183687185 29.202067036
524 175 2 0.4238 0.692985500 7.100465442 29.637695411
525 175 2 0.4238 4.034079864 6.258509744 30.896349457
526 176 1 -0.8476 24.380495795 26.052777107 30.486237866
527 176 2 0.4238 24.306503643 25.454810816 27.912132517
528 176 2 0.4238 26.370437060 24.576626943 31.042295336
529 177 1 -0.8476 13.520795467 20.992860772 1.210543831
530 177 2 0.4238 14.468323128 18.707740804 0.271878685
531 177 2 0.4238 13.412765712 22.327718074 -1.019348995
532 178 1 -0.8476 1.777208857 29.684181519 14.399455961
533 178 2 0.4238 2.659768062 29.420401001 16.827069089
534 178 2 0.4238 4.313704769 29.674357811 13.788017903
535 179 1 -0.8476 25.621056439 11.180250866 20.254491925
536 179 2 0.4238 27.895909945 12.431482380 19.969921600
537 179 2 0.4238 24.116533795 13.167363137 20.938719554
538 180 1 -0.8476 25.871867341 9.239221457 3.923811237
539 180 2 0.4238 26.952709325 6.948998639 3.343893406
540 180 2 0.4238 27.618818350 10.882199860 2.921196893
541 181 1 -0.8476 21.293021814 8.120132388 19.207751757
542 181 2 0.4238 18.936591204 6.978734800 18.829358622
543 181 2 0.4238 19.993773416 10.329279883 18.739360381