LAMMPS (2 Aug 2023 - Update 3)
# Compute elastic constant tensor for a crystal
#
# Written by Aidan Thompson (Sandia, athomps@sandia.gov)
#
#  This script uses the following three include files.
#
#   init.mod      (must be modified for different crystal structures)
# 	       	  Define units, deformation parameters and initial
#		  configuration of the atoms and simulation Neighbor list info ...
  update: every = 1 steps, delay = 0 steps, check = yes
  max neighbors/atom: 2000, page size: 100000
  master list distance cutoff = 4.77118
  ghost atom cutoff = 4.77118
  1 neighbor lists, perpetual/occasional/extra = 1 0 0
  (1) pair sw, perpetual
      attributes: full, newton on
      pair build: full/nsq
      stencil: none
      bin: none
Setting up cg style minimization ...
  Unit style    : metal
  Current step  : 0
WARNING: Energy due to 3 extra global DOFs will be included in minimizer energies
 (../min.cpp:228)
Per MPI rank memory allocation (min/avg/max) = 4.178 | 4.178 | 4.178 Mbytes
   Step          Temp          PotEng         Press           Pxx            Pyy            Pzz            Pxy            Pxz            Pyz             Lx             Ly             Lz           Volume    
         0   0             -832.62686      532.56802      532.56802      532.56802      532.56802      2.309951e-11  -1.0106178e-11  6.7391516e-12  10.86          16.29          21.72          3842.4722    
         1   0             -832.62714      227.98084      227.98084      227.98084      227.98084      2.8701459e-10 -1.0031341e-10  4.7146836e-11  10.861086      16.291629      21.722172      3843.625     
         2   0             -832.6272      -0.016514738   -0.016514738   -0.016514738   -0.016514738   -4.8086135e-11  1.0021046e-10 -4.2157868e-11  10.8619        16.292849      21.723799      3844.4889    
         3   0             -832.6272      -1.8901541e-06 -1.8901704e-06 -1.8901198e-06 -1.8901721e-06  1.651315e-10   2.6639791e-11 -3.1664045e-10  10.8619        16.292849      21.723799      3844.4888    
         4   0             -832.6272      -4.1060377e-11 -2.2709669e-11 -8.800783e-11  -1.2463631e-11  5.9162573e-10  1.2434231e-10 -2.2833446e-10  10.8619        16.292849      21.723799      3844.4888    
Loop time of 0.0004601 on 1 procs for 4 steps with 192 atoms

106.3% CPU use with 1 MPI tasks x no OpenMP threads

Minimization stats:
  Stopping criterion = force tolerance
  Energy initial, next-to-last, final = 
     -832.626864929171  -832.627199984116  -832.627199984116
  Force two-norm initial, final = 2.2122596 6.8156127e-13
  Force max component initial, final = 1.2772487 2.111415e-13
  Final line search alpha, max atom move = 1 2.111415e-13
  Iterations, force evaluations = 4 7

MPI task timing breakdown:
Section |  min time  |  avg time  |  max time  |%varavg| %total
---------------------------------------------------------------
Pair    | 0.00038454 | 0.00038454 | 0.00038454 |   0.0 | 83.58
Neigh   | 0          | 0          | 0          |   0.0 |  0.00
Comm    | 8.747e-06  | 8.747e-06  | 8.747e-06  |   0.0 |  1.90
Output  | 1.2973e-05 | 1.2973e-05 | 1.2973e-05 |   0.0 |  2.82
Modify  | 0          | 0          | 0          |   0.0 |  0.00
Other   |            | 5.384e-05  |            |       | 11.70

Nlocal:            192 ave         192 max         192 min
Histogram: 1 0 0 0 0 0 0 0 0 0
Nghost:            634 ave         634 max         634 min
Histogram: 1 0 0 0 0 0 0 0 0 0
Neighs:              0 ave           0 max           0 min
Histogram: 1 0 0 0 0 0 0 0 0 0
FullNghs:         5376 ave        5376 max        5376 min
Histogram: 1 0 0 0 0 0 0 0 0 0

Total # of neighbors = 5376
Ave neighs/atom = 28
Neighbor list builds = 0
Dangerous builds = 0
System init for write_data ...
{"1":-2.2709669199827007371e-15, "2":-8.800783012669045051e-15,"3":-1.2463631495248945446e-15,"4":-2.2833445772872979618e-14,"5":1.2434230513788431143e-14,"6":5.9162573177610992597e-14}
Displacing atoms ...
System init for write_restart ...

The 'box' command has been removed and will be ignored

Reading restart file ...
  restart file = 2 Aug 2023, LAMMPS = 2 Aug 2023
  restoring atom style atomic from restart
  triclinic box = (-0.00094977841 -0.0014246676 -0.0018995568) to (10.86095 16.291425 21.7219) with tilt (0 0 0)
  1 by 1 by 1 MPI processor grid
  pair style sw stores no restart info
  192 atoms
  read_restart CPU = 0.000 seconds
Reading sw potential file Si.sw with DATE: 2007-06-11
Changing box ...
  triclinic box = (-0.00094977841 -0.0014246676 -0.0018995568) to (10.860939 16.291425 21.7219) with tilt (0 0 0)
  triclinic box = (-0.00094977841 -0.0014246676 -0.0018995568) to (10.860939 16.291425 21.7219) with tilt (0 0 0)
  triclinic box = (-0.00094977841 -0.0014246676 -0.0018995568) to (10.860939 16.291425 21.7219) with tilt (0 0 0)
Neighbor list info ...
  update: every = 1 steps, delay = 0 steps, check = yes
  max neighbors/atom: 2000, page size: 100000
  master list distance cutoff = 4.77118
  ghost atom cutoff = 4.77118
  1 neighbor lists, perpetual/occasional/extra = 1 0 0
  (1) pair sw, perpetual
      attributes: full, newton on
      pair build: full/nsq
      stencil: none
      bin: none
Setting up cg style minimization ...
  Unit style    : metal
  Current step  : 4
Per MPI rank memory allocation (min/avg/max) = 4.178 | 4.178 | 4.178 Mbytes
   Step          Temp          PotEng         Press           Pxx            Pyy            Pzz            Pxy            Pxz            Pyz             Lx             Ly             Lz           Volume    
         4   0             -832.6272       1.014293       1.5143121      0.76428335     0.76428354     1.3311024      0.060755787    0.50878631     10.861889      16.292849      21.723799      3844.485     
         5   0             -832.6272       1.0142322      1.5142479      0.76422441     0.76422427    -0.33379744    -0.015238958   -0.12759719     10.861889      16.292849      21.723799      3844.485     
         6   0             -832.6272       1.0142304      1.5142459      0.76422267     0.76422271     0.28737793     0.013120077    0.10985668     10.861889      16.292849      21.723799      3844.485     
         7   0             -832.6272       1.0142305      1.5142463      0.76422264     0.76422264    -0.21303858    -0.0097267794  -0.081440068    10.861889      16.292849      21.723799      3844.485     
         8   0             -832.6272       1.0142306      1.5142465      0.76422266     0.7642227      0.11774315     0.0053762348   0.045011488    10.861889      16.292849      21.723799      3844.485     
         9   0             -832.6272       1.0142306      1.5142464      0.76422268     0.76422268    -0.069933606   -0.0031933921  -0.026735176    10.861889      16.292849      21.723799      3844.485     
        10   0             -832.6272       1.0142306      1.5142465      0.76422268     0.76422269     0.040262414    0.0018386202   0.015392496    10.861889      16.292849      21.723799      3844.485     
        11   0             -832.6272       1.0142306      1.5142465      0.76422271     0.76422271    -0.028340491   -0.0012942926  -0.010835082    10.861889      16.292849      21.723799      3844.485     
        12   0             -832.6272       1.0142306      1.5142465      0.7642227      0.76422271     0.012632725    0.00057700122  0.0048299909   10.861889      16.292849      21.723799      3844.485     
        13   0             -832.6272       1.0142306      1.5142465      0.76422271     0.76422271    -0.0063623078  -0.00029065224 -0.0024328022   10.861889      16.292849      21.723799      3844.485     
        14   0             -832.6272       1.0142306      1.5142465      0.76422271     0.76422271     0.0034910302   0.00015954189  0.0013351361   10.861889      16.292849      21.723799      3844.485     
        15   0             -832.6272       1.0142306      1.5142465      0.76422271     0.76422271    -0.0018870401  -8.6303702e-05 -0.00072197779  10.861889      16.292849      21.723799      3844.485     
        16   0             -832.6272       1.0142306      1.5142465      0.76422271     0.76422271     0.0012163691   5.5702521e-05  0.00046568421  10.861889      16.292849      21.723799      3844.485     
        17   0             -832.6272       1.0142306      1.5142465      0.76422271     0.76422271    -0.00083276356 -3.8204844e-05 -0.00031911997  10.861889      16.292849      21.723799      3844.485     
        18   0             -832.6272       1.0142306      1.5142465      0.76422271     0.76422271     0.00057580428  2.6520619e-05  0.00022109751  10.861889      16.292849      21.723799      3844.485     
        19   0             -832.6272       1.0142306      1.5142465      0.76422271     0.76422271    -0.00028608367 -1.3257516e-05 -0.00011019745  10.861889      16.292849      21.723799      3844.485     
        20   0             -832.6272       1.0142306      1.5142465      0.76422271     0.76422271     0.00013491042  6.3624525e-06  5.2439815e-05  10.861889      16.292849      21.723799      3844.485     
        21   0             -832.6272       1.0142306      1.5142465      0.76422271     0.76422271    -7.4377332e-05 -3.6566949e-06 -2.9548843e-05  10.861889      16.292849      21.723799      3844.485     
        22   0             -832.6272       1.0142306      1.5142465      0.76422271     0.76422271     3.7615529e-05  1.9906306e-06  1.5549187e-05  10.861889      16.292849      21.723799      3844.485     
        23   0             -832.6272       1.0142306      1.5142465      0.76422271     0.76422271    -2.1943741e-05 -1.3533148e-06 -9.8935733e-06  10.861889      16.292849      21.723799      3844.485     
        24   0             -832.6272       1.0142306      1.5142465      0.76422271     0.76422271     1.9967159e-05  1.4590984e-06  9.9774255e-06  10.861889      16.292849      21.723799      3844.485     
        25   0             -832.6272       1.0142306      1.5142465      0.76422271     0.76422271    -1.2279361e-05 -1.028163e-06  -6.6967528e-06  10.861889      16.292849      21.723799      3844.485     
        26   0             -832.6272       1.0142306      1.5142465      0.76422271     0.76422271     1.5558314e-05  1.4698031e-06  9.2006749e-06  10.861889      16.292849      21.723799      3844.485     
        27   0             -832.6272       1.0142306      1.5142465      0.76422271     0.76422271    -1.3462258e-05 -1.3602944e-06 -8.3403517e-06  10.861889      16.292849      21.723799      3844.485     
        28   0             -832.6272       1.0142306      1.5142465      0.76422271     0.76422271     1.1035505e-05  1.1577197e-06  7.0195074e-06  10.861889      16.292849      21.723799      3844.485     
        29   0             -832.6272       1.0142306      1.5142465      0.76422271     0.76422271    -1.4219919e-05 -1.528921e-06  -9.2043387e-06  10.861889      16.292849      21.723799      3844.485     
        30   0             -832.6272       1.0142306      1.5142465      0.76422271     0.76422271     1.3141897e-05  1.4279677e-06  8.5706851e-06  10.861889      16.292849      21.723799      3844.485     
        31   0             -832.6272       1.0142306      1.5142465      0.76422271     0.76422271    -1.3465718e-05 -1.4695089e-06 -8.8090472e-06  10.861889      16.292849      21.723799      3844.485     
        32   0             -832.6272       1.0142306      1.5142465      0.76422271     0.76422271     1.3648156e-05  1.4934175e-06  8.9454064e-06  10.861889      16.292849      21.723799      3844.485     
        33   0             -832.6272       1.0142306      1.5142465      0.76422271     0.76422271    -1.257344e-05  -1.3780548e-06 -8.2504098e-06  10.861889      16.292849      21.723799      3844.485     
        34   0             -832.6272       1.0142306      1.5142465      0.76422271     0.76422271     9.1640861e-06  1.0052962e-06  6.0168635e-06  10.861889      16.292849      21.723799      3844.485     
        35   0             -832.6272       1.0142306      1.5142465      0.76422271     0.76422271    -1.0417637e-05 -1.1436504e-06 -6.8430619e-06  10.861889      16.292849      21.723799      3844.485     
        36   0             -832.6272       1.0142306      1.5142465      0.76422271     0.76422271     1.2036849e-05  1.3217103e-06  7.9078437e-06  10.861889      16.292849      21.723799      3844.485     
        37   0             -832.6272       1.0142306      1.5142465      0.76422271     0.76422271    -1.1158411e-05 -1.2253596e-06 -7.3310438e-06  10.861889      16.292849      21.723799      3844.485     
        38   0             -832.6272       1.0142306      1.5142465      0.76422271     0.76422271     9.5706557e-06  1.0510042e-06  6.2881039e-06  10.861889      16.292849      21.723799      3844.485     
        39   0             -832.6272       1.0142306      1.5142465      0.76422271     0.76422271    -8.3628099e-06 -9.1833832e-07 -5.4946575e-06  10.861889      16.292849      21.723799      3844.485     
        40   0             -832.6272       1.0142306      1.5142465      0.76422271     0.76422271     4.8233888e-06  5.2959668e-07  3.1691783e-06  10.861889      16.292849      21.723799      3844.485     
        41   0             -832.6272       1.0142306      1.5142465      0.76422271     0.76422271    -2.9163006e-06 -3.2016805e-07 -1.9160827e-06  10.861889      16.292849      21.723799      3844.485     
        42   0             -832.6272       1.0142306      1.5142465      0.76422271     0.76422271     2.2336395e-06  2.4524329e-07  1.4674597e-06  10.861889      16.292849      21.723799      3844.485     
        43   0             -832.6272       1.0142306      1.5142465      0.76422271     0.76422271    -8.0403274e-07 -8.8385693e-08 -5.2809948e-07  10.861889      16.292849      21.723799      3844.485     
        44   0             -832.6272       1.0142306      1.5142465      0.76422271     0.76422271     4.6581098e-07  5.1333595e-08  3.0578114e-07  10.861889      16.292849      21.723799      3844.485     
        45   0             -832.6272       1.0142306      1.5142465      0.76422271     0.76422271    -2.2662826e-07 -2.5154095e-08 -1.4854245e-07  10.861889      16.292849      21.723799      3844.485     
        46   0             -832.6272       1.0142306      1.5142465      0.76422271     0.76422271     1.2074521e-07  1.3683446e-08  7.8805205e-08  10.861889      16.292849      21.723799      3844.485     
        47   0             -832.6272       1.0142306      1.5142465      0.76422271     0.76422271    -4.8112508e-08 -5.6954772e-09 -3.1140969e-08  10.861889      16.292849      21.723799      3844.485     
        48   0             -832.6272       1.0142306      1.5142465      0.76422271     0.76422271     2.7562495e-08  3.766254e-09   1.7291206e-08  10.861889      16.292849      21.723799      3844.485     
        49   0             -832.6272       1.0142306      1.5142465      0.76422271     0.76422271    -1.1999578e-08 -2.0783617e-09 -7.1198044e-09  10.861889      16.292849      21.723799      3844.485     
        50   0             -832.6272       1.0142306      1.5142465      0.76422271     0.76422271     5.884679e-09   1.4546237e-09  3.2482703e-09  10.861889      16.292849      21.723799      3844.485     
        51   0             -832.6272       1.0142306      1.5142465      0.76422271     0.76422271    -4.4905095e-09 -1.8399489e-09 -2.2251955e-09  10.861889      16.292849      21.723799      3844.485     
        52   0             -832.6272       1.0142306      1.5142465      0.76422271     0.76422271     1.8900632e-09  1.1521311e-09  7.8722808e-10  10.861889      16.292849      21.723799      3844.485     
        53   0             -832.6272       1.0142306      1.5142465      0.76422271     0.76422271    -1.5928094e-09 -1.3240747e-09 -5.2517772e-10  10.861889      16.292849      21.723799      3844.485     
Loop time of 0.00490472 on 1 procs for 49 steps with 192 atoms

106.1% CPU use with 1 MPI tasks x no OpenMP threads

Minimization stats:
  Stopping criterion = force tolerance
  Energy initial, next-to-last, final = 
     -832.627199813067  -832.627199982311  -832.627199982311
  Force two-norm initial, final = 0.0029695526 6.9469375e-11
  Force max component initial, final = 0.00032755747 9.8304861e-12
  Final line search alpha, max atom move = 1 9.8304861e-12
  Iterations, force evaluations = 49 98

MPI task timing breakdown:
Section |  min time  |  avg time  |  max time  |%varavg| %total
---------------------------------------------------------------
Pair    | 0.0044774  | 0.0044774  | 0.0044774  |   0.0 | 91.29
Neigh   | 0          | 0          | 0          |   0.0 |  0.00
Comm    | 9.5032e-05 | 9.5032e-05 | 9.5032e-05 |   0.0 |  1.94
Output  | 0.00019023 | 0.00019023 | 0.00019023 |   0.0 |  3.88
Modify  | 0          | 0          | 0          |   0.0 |  0.00
Other   |            | 0.0001421  |            |       |  2.90

Nlocal:            192 ave         192 max         192 min
Histogram: 1 0 0 0 0 0 0 0 0 0
Nghost:            634 ave         634 max         634 min
Histogram: 1 0 0 0 0 0 0 0 0 0
Neighs:              0 ave           0 max           0 min
Histogram: 1 0 0 0 0 0 0 0 0 0
FullNghs:         5376 ave        5376 max        5376 min
Histogram: 1 0 0 0 0 0 0 0 0 0

Total # of neighbors = 5376
Ave neighs/atom = 28
Neighbor list builds = 0
Dangerous builds = 0
System init for write_data ...
{"1":0.00015142464722865857244, "2":7.6422270879488755847e-05,"3":7.6422270891458686645e-05,"4":-5.2517772232734891046e-14,"5":-1.3240746900938603949e-13,"6":-1.5928094124206539413e-13}
delta/len0 = -1e-06 -9.9999999999999995475e-07

The 'box' command has been removed and will be ignored

Reading restart file ...
  restart file = 2 Aug 2023, LAMMPS = 2 Aug 2023
  restoring atom style atomic from restart
  triclinic box = (-0.00094977841 -0.0014246676 -0.0018995568) to (10.86095 16.291425 21.7219) with tilt (0 0 0)
  1 by 1 by 1 MPI processor grid
  pair style sw stores no restart info
  192 atoms
  read_restart CPU = 0.000 seconds
Reading sw potential file Si.sw with DATE: 2007-06-11
Changing box ...
  triclinic box = (-0.00094977841 -0.0014246676 -0.0018995568) to (10.860961 16.291425 21.7219) with tilt (0 0 0)
  triclinic box = (-0.00094977841 -0.0014246676 -0.0018995568) to (10.860961 16.291425 21.7219) with tilt (0 0 0)
  triclinic box = (-0.00094977841 -0.0014246676 -0.0018995568) to (10.860961 16.291425 21.7219) with tilt (0 0 0)
Neighbor list info ...
  update: every = 1 steps, delay = 0 steps, check = yes
  max neighbors/atom: 2000, page size: 100000
  master list distance cutoff = 4.77118
  ghost atom cutoff = 4.77118
  1 neighbor lists, perpetual/occasional/extra = 1 0 0
  (1) pair sw, perpetual
      attributes: full, newton on
      pair build: full/nsq
      stencil: none
      bin: none
Setting up cg style minimization ...
  Unit style    : metal
  Current step  : 4
Per MPI rank memory allocation (min/avg/max) = 4.178 | 4.178 | 4.178 Mbytes
   Step          Temp          PotEng         Press           Pxx            Pyy            Pzz            Pxy            Pxz            Pyz             Lx             Ly             Lz           Volume    
         4   0             -832.6272      -1.0141646     -1.5141775     -0.76415834    -0.76415815     1.3310955      0.060755476    0.50878383     10.86191       16.292849      21.723799      3844.4927    
         5   0             -832.6272      -1.0142255     -1.5142417     -0.76421727    -0.76421742    -0.33379658    -0.015238918   -0.12759641     10.86191       16.292849      21.723799      3844.4927    
         6   0             -832.6272      -1.0142272     -1.5142437     -0.76421902    -0.76421898     0.28737751     0.013120058    0.10985577     10.86191       16.292849      21.723799      3844.4927    
         7   0             -832.6272      -1.0142271     -1.5142433     -0.76421904    -0.76421905    -0.21303808    -0.0097267561  -0.081438974    10.86191       16.292849      21.723799      3844.4927    
         8   0             -832.6272      -1.014227      -1.5142431     -0.76421902    -0.76421899     0.11774293     0.0053762246   0.045010527    10.86191       16.292849      21.723799      3844.4927    
         9   0             -832.6272      -1.0142271     -1.5142431     -0.76421901    -0.764219      -0.069933623   -0.0031933925  -0.026734342    10.86191       16.292849      21.723799      3844.4927    
        10   0             -832.6272      -1.014227      -1.5142431     -0.764219      -0.764219       0.040262543    0.0018386257   0.015391784    10.86191       16.292849      21.723799      3844.4927    
        11   0             -832.6272      -1.014227      -1.5142431     -0.76421898    -0.76421897    -0.028340573   -0.0012942959  -0.010834299    10.86191       16.292849      21.723799      3844.4927    
        12   0             -832.6272      -1.014227      -1.5142431     -0.76421898    -0.76421898     0.012632775    0.00057700315  0.0048294469   10.86191       16.292849      21.723799      3844.4927    
        13   0             -832.6272      -1.014227      -1.5142431     -0.76421898    -0.76421898    -0.0063623569  -0.0002906541  -0.0024323496   10.86191       16.292849      21.723799      3844.4927    
        14   0             -832.6272      -1.014227      -1.5142431     -0.76421898    -0.76421898     0.0034910945   0.00015954439  0.0013347155   10.86191       16.292849      21.723799      3844.4927    
        15   0             -832.6272      -1.014227      -1.5142431     -0.76421898    -0.76421898    -0.0018871415  -8.6307815e-05 -0.00072155122  10.86191       16.292849      21.723799      3844.4927    
        16   0             -832.6272      -1.014227      -1.5142431     -0.76421898    -0.76421898     0.0012165063   5.5708192e-05  0.00046520106  10.86191       16.292849      21.723799      3844.4927    
        17   0             -832.6272      -1.014227      -1.5142431     -0.76421898    -0.76421898    -0.00083293481 -3.8212046e-05 -0.00031858282  10.86191       16.292849      21.723799      3844.4927    
        18   0             -832.6272      -1.014227      -1.5142431     -0.76421898    -0.76421898     0.00057603791  2.6530641e-05  0.00022042054  10.86191       16.292849      21.723799      3844.4927    
        19   0             -832.6272      -1.014227      -1.5142431     -0.76421898    -0.76421898    -0.00028629059 -1.326647e-05  -0.00010962224  10.86191       16.292849      21.723799      3844.4927    
        20   0             -832.6272      -1.014227      -1.5142431     -0.76421898    -0.76421898     0.00013513225  6.3720403e-06  5.1843781e-05  10.86191       16.292849      21.723799      3844.4927    
        21   0             -832.6272      -1.014227      -1.5142431     -0.76421898    -0.76421898    -7.466723e-05  -3.6691715e-06 -2.8781468e-05  10.86191       16.292849      21.723799      3844.4927    
        22   0             -832.6272      -1.014227      -1.5142431     -0.76421898    -0.76421898     3.7921057e-05  2.0037129e-06  1.4745443e-05  10.86191       16.292849      21.723799      3844.4927    
        23   0             -832.6272      -1.014227      -1.5142431     -0.76421898    -0.76421898    -2.2338098e-05 -1.3700526e-06 -8.8593717e-06  10.86191       16.292849      21.723799      3844.4927    
        24   0             -832.6272      -1.014227      -1.5142431     -0.76421898    -0.76421898     2.0582342e-05  1.4851054e-06  8.3666014e-06  10.86191       16.292849      21.723799      3844.4927    
        25   0             -832.6272      -1.014227      -1.5142431     -0.76421898    -0.76421898    -1.2805376e-05 -1.0502776e-06 -5.3208993e-06  10.86191       16.292849      21.723799      3844.4927    
        26   0             -832.6272      -1.014227      -1.5142431     -0.76421898    -0.76421898     1.6413132e-05  1.5055444e-06  6.9659372e-06  10.86191       16.292849      21.723799      3844.4927    
        27   0             -832.6272      -1.014227      -1.5142431     -0.76421898    -0.76421898    -1.4301556e-05 -1.3952606e-06 -6.1462438e-06  10.86191       16.292849      21.723799      3844.4927    
        28   0             -832.6272      -1.014227      -1.5142431     -0.76421898    -0.76421898     1.1771668e-05  1.188335e-06   5.095585e-06   10.86191       16.292849      21.723799      3844.4927    
        29   0             -832.6272      -1.014227      -1.5142431     -0.76421898    -0.76421898    -1.521046e-05  -1.5701268e-06 -6.6159172e-06  10.86191       16.292849      21.723799      3844.4927    
        30   0             -832.6272      -1.014227      -1.5142431     -0.76421898    -0.76421898     1.4074532e-05  1.4668379e-06  6.1346283e-06  10.86191       16.292849      21.723799      3844.4927    
        31   0             -832.6272      -1.014227      -1.5142431     -0.76421898    -0.76421898    -1.4429303e-05 -1.5096968e-06 -6.2946275e-06  10.86191       16.292849      21.723799      3844.4927    
        32   0             -832.6272      -1.014227      -1.5142431     -0.76421898    -0.76421898     1.4630248e-05  1.5344038e-06  6.3856184e-06  10.86191       16.292849      21.723799      3844.4927    
        33   0             -832.6272      -1.014227      -1.5142431     -0.76421898    -0.76421898    -1.3482031e-05 -1.416081e-06  -5.8862647e-06  10.86191       16.292849      21.723799      3844.4927    
        34   0             -832.6272      -1.014227      -1.5142431     -0.76421898    -0.76421898     9.8292413e-06  1.0332458e-06  4.2921197e-06  10.86191       16.292849      21.723799      3844.4927    
        35   0             -832.6272      -1.014227      -1.5142431     -0.76421898    -0.76421898    -1.1177577e-05 -1.1757821e-06 -4.8814444e-06  10.86191       16.292849      21.723799      3844.4927    
        36   0             -832.6272      -1.014227      -1.5142431     -0.76421898    -0.76421898     1.2926456e-05  1.360094e-06   5.6453729e-06  10.86191       16.292849      21.723799      3844.4927    
        37   0             -832.6272      -1.014227      -1.5142431     -0.76421898    -0.76421898    -1.2011782e-05 -1.2640618e-06 -5.24594e-06    10.86191       16.292849      21.723799      3844.4927    
        38   0             -832.6272      -1.014227      -1.5142431     -0.76421898    -0.76421898     1.0341655e-05  1.0884059e-06  4.5166049e-06  10.86191       16.292849      21.723799      3844.4927    
        39   0             -832.6272      -1.014227      -1.5142431     -0.76421898    -0.76421898    -9.1101497e-06 -9.5881793e-07 -3.9788236e-06  10.86191       16.292849      21.723799      3844.4927    
        40   0             -832.6272      -1.014227      -1.5142431     -0.76421898    -0.76421898     5.2983345e-06  5.5764837e-07  2.3140374e-06  10.86191       16.292849      21.723799      3844.4927    
        41   0             -832.6272      -1.014227      -1.5142431     -0.76421898    -0.76421898    -3.2283089e-06 -3.3975057e-07 -1.4099439e-06  10.86191       16.292849      21.723799      3844.4927    
        42   0             -832.6272      -1.014227      -1.5142431     -0.76421898    -0.76421898     2.4885845e-06  2.6190723e-07  1.0868643e-06  10.86191       16.292849      21.723799      3844.4927    
        43   0             -832.6272      -1.014227      -1.5142431     -0.76421898    -0.76421898    -8.9799972e-07 -9.451174e-08  -3.9217952e-07  10.86191       16.292849      21.723799      3844.4927    
        44   0             -832.6272      -1.014227      -1.5142431     -0.76421898    -0.76421898     5.2053163e-07  5.4779339e-08  2.2722691e-07  10.86191       16.292849      21.723799      3844.4927    
        45   0             -832.6272      -1.014227      -1.5142431     -0.76421898    -0.76421898    -2.5296539e-07 -2.6736028e-08 -1.1022299e-07  10.86191       16.292849      21.723799      3844.4927    
        46   0             -832.6272      -1.014227      -1.5142431     -0.76421898    -0.76421898     1.3422492e-07  1.4473421e-08  5.8193473e-08  10.86191       16.292849      21.723799      3844.4927    
        47   0             -832.6272      -1.014227      -1.5142431     -0.76421898    -0.76421898    -5.3118873e-08 -6.0226627e-09 -2.2816698e-08  10.86191       16.292849      21.723799      3844.4927    
        48   0             -832.6272      -1.014227      -1.5142431     -0.76421898    -0.76421898     2.9635216e-08  3.9043742e-09  1.2273662e-08  10.86191       16.292849      21.723799      3844.4927    
        49   0             -832.6272      -1.014227      -1.5142431     -0.76421898    -0.76421898    -1.2228506e-08 -1.9537281e-09 -4.6895717e-09  10.86191       16.292849      21.723799      3844.4927    
        50   0             -832.6272      -1.014227      -1.5142431     -0.76421898    -0.76421898     5.5104207e-09  1.110167e-09   1.8048932e-09  10.86191       16.292849      21.723799      3844.4927    
        51   0             -832.6272      -1.014227      -1.5142431     -0.76421898    -0.76421898    -3.6930792e-09 -1.0940558e-09 -7.2171431e-10  10.86191       16.292849      21.723799      3844.4927    
        52   0             -832.6272      -1.014227      -1.5142431     -0.76421898    -0.76421898     1.3156436e-09  6.1636973e-10 -9.8122028e-11  10.86191       16.292849      21.723799      3844.4927    
        53   0             -832.6272      -1.014227      -1.5142431     -0.76421898    -0.76421898    -1.0522799e-09 -6.8900393e-10  4.4758276e-10  10.86191       16.292849      21.723799      3844.4927    
Loop time of 0.00565797 on 1 procs for 49 steps with 192 atoms

106.1% CPU use with 1 MPI tasks x no OpenMP threads

Minimization stats:
  Stopping criterion = force tolerance
  Energy initial, next-to-last, final = 
     -832.627199813067  -832.627199982311  -832.627199982311
  Force two-norm initial, final = 0.0029695445 6.948872e-11
  Force max component initial, final = 0.00032755636 9.7955805e-12
  Final line search alpha, max atom move = 1 9.7955805e-12
  Iterations, force evaluations = 49 98

MPI task timing breakdown:
Section |  min time  |  avg time  |  max time  |%varavg| %total
---------------------------------------------------------------
Pair    | 0.0050262  | 0.0050262  | 0.0050262  |   0.0 | 88.83
Neigh   | 0          | 0          | 0          |   0.0 |  0.00
Comm    | 0.00011895 | 0.00011895 | 0.00011895 |   0.0 |  2.10
Output  | 0.00033465 | 0.00033465 | 0.00033465 |   0.0 |  5.91
Modify  | 0          | 0          | 0          |   0.0 |  0.00
Other   |            | 0.0001782  |            |       |  3.15

Nlocal:            192 ave         192 max         192 min
Histogram: 1 0 0 0 0 0 0 0 0 0
Nghost:            634 ave         634 max         634 min
Histogram: 1 0 0 0 0 0 0 0 0 0
Neighs:              0 ave           0 max           0 min
Histogram: 1 0 0 0 0 0 0 0 0 0
FullNghs:         5376 ave        5376 max        5376 min
Histogram: 1 0 0 0 0 0 0 0 0 0

Total # of neighbors = 5376
Ave neighs/atom = 28
Neighbor list builds = 0
Dangerous builds = 0
System init for write_data ...
{"1":-0.00015142431128586580978, "2":-7.6421897697721326162e-05,"3":-7.6421897686922333711e-05,"4":4.4758276382302256923e-14,"5":-6.8900393113515671051e-14,"6":-1.0522798694337047726e-13}
delta/len0 = 1e-06 9.9999999999999995475e-07

The 'box' command has been removed and will be ignored

Reading restart file ...
  restart file = 2 Aug 2023, LAMMPS = 2 Aug 2023
  restoring atom style atomic from restart
  triclinic box = (-0.00094977841 -0.0014246676 -0.0018995568) to (10.86095 16.291425 21.7219) with tilt (0 0 0)
  1 by 1 by 1 MPI processor grid
  pair style sw stores no restart info
  192 atoms
  read_restart CPU = 0.000 seconds
Reading sw potential file Si.sw with DATE: 2007-06-11
Changing box ...
  triclinic box = (-0.00094977841 -0.0014246676 -0.0018995568) to (10.86095 16.291408 21.7219) with tilt (0 0 0)
  triclinic box = (-0.00094977841 -0.0014246676 -0.0018995568) to (10.86095 16.291408 21.7219) with tilt (0 0 0)
Neighbor list info ...
  update: every = 1 steps, delay = 0 steps, check = yes
  max neighbors/atom: 2000, page size: 100000
  master list distance cutoff = 4.77118
  ghost atom cutoff = 4.77118
  1 neighbor lists, perpetual/occasional/extra = 1 0 0
  (1) pair sw, perpetual
      attributes: full, newton on
      pair build: full/nsq
      stencil: none
      bin: none
Setting up cg style minimization ...
  Unit style    : metal
  Current step  : 4
Per MPI rank memory allocation (min/avg/max) = 4.178 | 4.178 | 4.178 Mbytes
   Step          Temp          PotEng         Press           Pxx            Pyy            Pzz            Pxy            Pxz            Pyz             Lx             Ly             Lz           Volume    
         4   0             -832.6272       1.014293       0.76428836     1.5143071      0.76428354     1.3311024      0.06075578     0.50878637     10.8619        16.292833      21.723799      3844.485     
         5   0             -832.6272       1.0142322      0.76422412     1.5142482      0.76422427    -0.33379747    -0.015238986   -0.12759698     10.8619        16.292833      21.723799      3844.485     
         6   0             -832.6272       1.0142304      0.76422216     1.5142464      0.76422271     0.28737796     0.013120124    0.10985632     10.8619        16.292833      21.723799      3844.485     
         7   0             -832.6272       1.0142305      0.76422255     1.5142464      0.76422264    -0.21303865    -0.0097268364  -0.081439645    10.8619        16.292833      21.723799      3844.485     
         8   0             -832.6272       1.0142306      0.76422269     1.5142464      0.7642227      0.1177433      0.0053762941   0.045011106    10.8619        16.292833      21.723799      3844.485     
         9   0             -832.6272       1.0142306      0.76422268     1.5142464      0.76422268    -0.069933785   -0.0031934504  -0.026734824    10.8619        16.292833      21.723799      3844.485     
        10   0             -832.6272       1.0142306      0.76422269     1.5142464      0.76422269     0.040262615    0.0018386747   0.015392192    10.8619        16.292833      21.723799      3844.485     
        11   0             -832.6272       1.0142306      0.7642227      1.5142465      0.76422271    -0.028340667   -0.0012943493  -0.010834742    10.8619        16.292833      21.723799      3844.485     
        12   0             -832.6272       1.0142306      0.76422271     1.5142465      0.76422271     0.012632825    0.00057703938  0.0048297473   10.8619        16.292833      21.723799      3844.485     
        13   0             -832.6272       1.0142306      0.7642227      1.5142465      0.76422271    -0.0063623611  -0.00029068268 -0.0024325868   10.8619        16.292833      21.723799      3844.485     
        14   0             -832.6272       1.0142306      0.7642227      1.5142465      0.76422271     0.0034910765   0.00015957032  0.001334931    10.8619        16.292833      21.723799      3844.485     
        15   0             -832.6272       1.0142306      0.7642227      1.5142465      0.76422271    -0.0018870959  -8.6333616e-05 -0.0007217661   10.8619        16.292833      21.723799      3844.485     
        16   0             -832.6272       1.0142306      0.76422271     1.5142465      0.76422271     0.0012164399   5.5737091e-05  0.00046544287  10.8619        16.292833      21.723799      3844.485     
        17   0             -832.6272       1.0142306      0.76422271     1.5142465      0.76422271    -0.00083285176 -3.8244029e-05 -0.00031885159  10.8619        16.292833      21.723799      3844.485     
        18   0             -832.6272       1.0142306      0.76422271     1.5142465      0.76422271     0.0005759243   2.6570692e-05  0.00022075918  10.8619        16.292833      21.723799      3844.485     
        19   0             -832.6272       1.0142306      0.76422271     1.5142465      0.76422271    -0.00028618999 -1.3300372e-05 -0.00010991001  10.8619        16.292833      21.723799      3844.485     
        20   0             -832.6272       1.0142306      0.76422271     1.5142465      0.76422271     0.00013502261  6.4069913e-06  5.2141237e-05  10.8619        16.292833      21.723799      3844.485     
        21   0             -832.6272       1.0142306      0.76422271     1.5142465      0.76422271    -7.4522581e-05 -3.7140718e-06 -2.9163789e-05  10.8619        16.292833      21.723799      3844.485     
        22   0             -832.6272       1.0142306      0.76422271     1.5142465      0.76422271     3.7768195e-05  2.0507667e-06  1.5145609e-05  10.8619        16.292833      21.723799      3844.485     
        23   0             -832.6272       1.0142306      0.76422271     1.5142465      0.76422271    -2.2140369e-05 -1.4306125e-06 -9.3740507e-06  10.8619        16.292833      21.723799      3844.485     
        24   0             -832.6272       1.0142306      0.76422271     1.5142465      0.76422271     2.0273843e-05  1.579444e-06   9.1681154e-06  10.8619        16.292833      21.723799      3844.485     
        25   0             -832.6272       1.0142306      0.76422271     1.5142465      0.76422271    -1.2541665e-05 -1.1310282e-06 -6.0054767e-06  10.8619        16.292833      21.723799      3844.485     
        26   0             -832.6272       1.0142306      0.76422271     1.5142465      0.76422271     1.5984601e-05  1.6369526e-06  8.0777737e-06  10.8619        16.292833      21.723799      3844.485     
        27   0             -832.6272       1.0142306      0.76422271     1.5142465      0.76422271    -1.3880753e-05 -1.5244919e-06 -7.2378668e-06  10.8619        16.292833      21.723799      3844.485     
        28   0             -832.6272       1.0142306      0.76422271     1.5142465      0.76422271     1.1402457e-05  1.301805e-06   6.0527627e-06  10.8619        16.292833      21.723799      3844.485     
        29   0             -832.6272       1.0142306      0.76422271     1.5142465      0.76422271    -1.47136e-05   -1.722947e-06  -7.903645e-06   10.8619        16.292833      21.723799      3844.485     
        30   0             -832.6272       1.0142306      0.76422271     1.5142465      0.76422271     1.3606773e-05  1.6106236e-06  7.3465729e-06  10.8619        16.292833      21.723799      3844.485     
        31   0             -832.6272       1.0142306      0.76422271     1.5142465      0.76422271    -1.3946246e-05 -1.6580801e-06 -7.5456051e-06  10.8619        16.292833      21.723799      3844.485     
        32   0             -832.6272       1.0142306      0.76422271     1.5142465      0.76422271     1.4138305e-05  1.6854622e-06  7.6592347e-06  10.8619        16.292833      21.723799      3844.485     
        33   0             -832.6272       1.0142306      0.76422271     1.5142465      0.76422271    -1.3027228e-05 -1.5554419e-06 -7.0627289e-06  10.8619        16.292833      21.723799      3844.485     
        34   0             -832.6272       1.0142306      0.76422271     1.5142465      0.76422271     9.4963804e-06  1.1347747e-06  5.1505695e-06  10.8619        16.292833      21.723799      3844.485     
        35   0             -832.6272       1.0142306      0.76422271     1.5142465      0.76422271    -1.0797285e-05 -1.2909428e-06 -5.8579218e-06  10.8619        16.292833      21.723799      3844.485     
        36   0             -832.6272       1.0142306      0.76422271     1.5142465      0.76422271     1.2482342e-05  1.4926295e-06  6.7727697e-06  10.8619        16.292833      21.723799      3844.485     
        37   0             -832.6272       1.0142306      0.76422271     1.5142465      0.76422271    -1.1588799e-05 -1.3857917e-06 -6.28816e-06    10.8619        16.292833      21.723799      3844.485     
        38   0             -832.6272       1.0142306      0.76422271     1.5142465      0.76422271     9.9636118e-06  1.1913982e-06  5.4064077e-06  10.8619        16.292833      21.723799      3844.485     
        39   0             -832.6272       1.0142306      0.76422271     1.5142465      0.76422271    -8.7507166e-06 -1.0462916e-06 -4.7482802e-06  10.8619        16.292833      21.723799      3844.485     
        40   0             -832.6272       1.0142306      0.76422271     1.5142465      0.76422271     5.073403e-06   6.0657503e-07  2.7529386e-06  10.8619        16.292833      21.723799      3844.485     
        41   0             -832.6272       1.0142306      0.76422271     1.5142465      0.76422271    -3.082332e-06  -3.6850115e-07 -1.6726276e-06  10.8619        16.292833      21.723799      3844.485     
        42   0             -832.6272       1.0142306      0.76422271     1.5142465      0.76422271     2.3702842e-06  2.8331547e-07  1.2863181e-06  10.8619        16.292833      21.723799      3844.485     
        43   0             -832.6272       1.0142306      0.76422271     1.5142465      0.76422271    -8.5435702e-07 -1.0206084e-07 -4.6370903e-07  10.8619        16.292833      21.723799      3844.485     
        44   0             -832.6272       1.0142306      0.76422271     1.5142465      0.76422271     4.9503465e-07  5.91298e-08    2.6872263e-07  10.8619        16.292833      21.723799      3844.485     
        45   0             -832.6272       1.0142306      0.76422271     1.5142465      0.76422271    -2.4046889e-07 -2.8792049e-08 -1.3058922e-07  10.8619        16.292833      21.723799      3844.485     
        46   0             -832.6272       1.0142306      0.76422271     1.5142465      0.76422271     1.2742132e-07  1.5367616e-08  6.9249292e-08  10.8619        16.292833      21.723799      3844.485     
        47   0             -832.6272       1.0142306      0.76422271     1.5142465      0.76422271    -5.0328924e-08 -6.1561523e-09 -2.7342907e-08  10.8619        16.292833      21.723799      3844.485     
        48   0             -832.6272       1.0142306      0.76422271     1.5142465      0.76422271     2.8122318e-08  3.6244262e-09  1.5148615e-08  10.8619        16.292833      21.723799      3844.485     
        49   0             -832.6272       1.0142306      0.76422271     1.5142465      0.76422271    -1.1794884e-08 -1.6397159e-09 -6.1974554e-09  10.8619        16.292833      21.723799      3844.485     
        50   0             -832.6272       1.0142306      0.76422271     1.5142465      0.76422271     5.4709794e-09  9.4707553e-10  2.8331937e-09  10.8619        16.292833      21.723799      3844.485     
        51   0             -832.6272       1.0142306      0.76422271     1.5142465      0.76422271    -3.8272457e-09 -1.042488e-09  -1.9580353e-09  10.8619        16.292833      21.723799      3844.485     
        52   0             -832.6272       1.0142306      0.76422271     1.5142465      0.76422271     1.4689807e-09  5.9325794e-10  7.0174446e-10  10.8619        16.292833      21.723799      3844.485     
        53   0             -832.6272       1.0142306      0.76422271     1.5142465      0.76422271    -1.1202099e-09 -6.9666955e-10 -4.9426076e-10  10.8619        16.292833      21.723799      3844.485     
Loop time of 0.00520701 on 1 procs for 49 steps with 192 atoms

106.1% CPU use with 1 MPI tasks x no OpenMP threads

Minimization stats:
  Stopping criterion = force tolerance
  Energy initial, next-to-last, final = 
     -832.627199813068  -832.627199982311  -832.627199982311
  Force two-norm initial, final = 0.0029695524 6.9480319e-11
  Force max component initial, final = 0.00032755739 9.8372515e-12
  Final line search alpha, max atom move = 1 9.8372515e-12
  Iterations, force evaluations = 49 98

MPI task timing breakdown:
Section |  min time  |  avg time  |  max time  |%varavg| %total
---------------------------------------------------------------
Pair    | 0.0047049  | 0.0047049  | 0.0047049  |   0.0 | 90.36
Neigh   | 0          | 0          | 0          |   0.0 |  0.00
Comm    | 0.000102   | 0.000102   | 0.000102   |   0.0 |  1.96
Output  | 0.00025036 | 0.00025036 | 0.00025036 |   0.0 |  4.81
Modify  | 0          | 0          | 0          |   0.0 |  0.00
Other   |            | 0.0001497  |            |       |  2.88

Nlocal:            192 ave         192 max         192 min
Histogram: 1 0 0 0 0 0 0 0 0 0
Nghost:            634 ave         634 max         634 min
Histogram: 1 0 0 0 0 0 0 0 0 0
Neighs:              0 ave           0 max           0 min
Histogram: 1 0 0 0 0 0 0 0 0 0
FullNghs:         5376 ave        5376 max        5376 min
Histogram: 1 0 0 0 0 0 0 0 0 0

Total # of neighbors = 5376
Ave neighs/atom = 28
Neighbor list builds = 0
Dangerous builds = 0
System init for write_data ...
{"1":7.6422270889079770896e-05, "2":0.00015142464720482805263,"3":7.642227088881144441e-05,"4":-4.942607561812616532e-14,"5":-6.9666954503613131781e-14,"6":-1.1202099259584071187e-13}
delta/len0 = -1e-06 -9.9999999999999995475e-07

The 'box' command has been removed and will be ignored

Reading restart file ...
  restart file = 2 Aug 2023, LAMMPS = 2 Aug 2023
  restoring atom style atomic from restart
  triclinic box = (-0.00094977841 -0.0014246676 -0.0018995568) to (10.86095 16.291425 21.7219) with tilt (0 0 0)
  1 by 1 by 1 MPI processor grid
  pair style sw stores no restart info
  192 atoms
  read_restart CPU = 0.003 seconds
Reading sw potential file Si.sw with DATE: 2007-06-11
Changing box ...
  triclinic box = (-0.00094977841 -0.0014246676 -0.0018995568) to (10.86095 16.291441 21.7219) with tilt (0 0 0)
  triclinic box = (-0.00094977841 -0.0014246676 -0.0018995568) to (10.86095 16.291441 21.7219) with tilt (0 0 0)
Neighbor list info ...
  update: every = 1 steps, delay = 0 steps, check = yes
  max neighbors/atom: 2000, page size: 100000
  master list distance cutoff = 4.77118
  ghost atom cutoff = 4.77118
  1 neighbor lists, perpetual/occasional/extra = 1 0 0
  (1) pair sw, perpetual
      attributes: full, newton on
      pair build: full/nsq
      stencil: none
      bin: none
Setting up cg style minimization ...
  Unit style    : metal
  Current step  : 4
Per MPI rank memory allocation (min/avg/max) = 4.178 | 4.178 | 4.178 Mbytes
   Step          Temp          PotEng         Press           Pxx            Pyy            Pzz            Pxy            Pxz            Pyz             Lx             Ly             Lz           Volume    
         4   0             -832.6272      -1.0141646     -0.76415333    -1.5141825     -0.76415815     1.3310955      0.060755484    0.50878376     10.8619        16.292866      21.723799      3844.4927    
         5   0             -832.6272      -1.0142255     -0.76421756    -1.5142414     -0.76421742    -0.33379655    -0.01523889    -0.12759662     10.8619        16.292866      21.723799      3844.4927    
         6   0             -832.6272      -1.0142272     -0.76421953    -1.5142432     -0.76421898     0.28737748     0.013120012    0.10985613     10.8619        16.292866      21.723799      3844.4927    
         7   0             -832.6272      -1.0142271     -0.76421913    -1.5142432     -0.76421905    -0.213038      -0.0097266991  -0.081439397    10.8619        16.292866      21.723799      3844.4927    
         8   0             -832.6272      -1.014227      -0.76421899    -1.5142432     -0.76421899     0.11774278     0.0053761654   0.045010908    10.8619        16.292866      21.723799      3844.4927    
         9   0             -832.6272      -1.0142271     -0.76421901    -1.5142431     -0.764219      -0.069933443   -0.0031933344  -0.026734693    10.8619        16.292866      21.723799      3844.4927    
        10   0             -832.6272      -1.014227      -0.76421899    -1.5142431     -0.764219       0.040262342    0.0018385714   0.015392088    10.8619        16.292866      21.723799      3844.4927    
        11   0             -832.6272      -1.014227      -0.76421899    -1.5142431     -0.76421897    -0.028340397   -0.0012942399  -0.010834639    10.8619        16.292866      21.723799      3844.4927    
        12   0             -832.6272      -1.014227      -0.76421898    -1.5142431     -0.76421898     0.012632676    0.00057696563  0.0048296904   10.8619        16.292866      21.723799      3844.4927    
        13   0             -832.6272      -1.014227      -0.76421899    -1.5142431     -0.76421898    -0.0063623037  -0.00029062418 -0.0024325649   10.8619        16.292866      21.723799      3844.4927    
        14   0             -832.6272      -1.014227      -0.76421898    -1.5142431     -0.76421898     0.0034910485   0.00015951625  0.0013349205   10.8619        16.292866      21.723799      3844.4927    
        15   0             -832.6272      -1.014227      -0.76421898    -1.5142431     -0.76421898    -0.0018870863  -8.6277948e-05 -0.00072176284  10.8619        16.292866      21.723799      3844.4927    
        16   0             -832.6272      -1.014227      -0.76421898    -1.5142431     -0.76421898     0.0012164369   5.5673379e-05  0.0004654424   10.8619        16.292866      21.723799      3844.4927    
        17   0             -832.6272      -1.014227      -0.76421898    -1.5142431     -0.76421898    -0.00083284856 -3.8172251e-05 -0.00031885128  10.8619        16.292866      21.723799      3844.4927    
        18   0             -832.6272      -1.014227      -0.76421898    -1.5142431     -0.76421898     0.00057592073  2.6479313e-05  0.0002207591   10.8619        16.292866      21.723799      3844.4927    
        19   0             -832.6272      -1.014227      -0.76421898    -1.5142431     -0.76421898    -0.00028618678 -1.3222314e-05 -0.00010991001  10.8619        16.292866      21.723799      3844.4927    
        20   0             -832.6272      -1.014227      -0.76421898    -1.5142431     -0.76421898     0.00013502278  6.3259164e-06  5.2142726e-05  10.8619        16.292866      21.723799      3844.4927    
        21   0             -832.6272      -1.014227      -0.76421898    -1.5142431     -0.76421898    -7.4525691e-05 -3.6096661e-06 -2.9166919e-05  10.8619        16.292866      21.723799      3844.4927    
        22   0             -832.6272      -1.014227      -0.76421898    -1.5142431     -0.76421898     3.7772297e-05  1.9413494e-06  1.5149318e-05  10.8619        16.292866      21.723799      3844.4927    
        23   0             -832.6272      -1.014227      -0.76421898    -1.5142431     -0.76421898    -2.2146447e-05 -1.2897016e-06 -9.3792631e-06  10.8619        16.292866      21.723799      3844.4927    
        24   0             -832.6272      -1.014227      -0.76421898    -1.5142431     -0.76421898     2.0283387e-05  1.3599288e-06  9.1763837e-06  10.8619        16.292866      21.723799      3844.4927    
        25   0             -832.6272      -1.014227      -0.76421898    -1.5142431     -0.76421898    -1.2549718e-05 -9.4341639e-07 -6.0125508e-06  10.8619        16.292866      21.723799      3844.4927    
        26   0             -832.6272      -1.014227      -0.76421898    -1.5142431     -0.76421898     1.5997755e-05  1.3320208e-06  8.0893915e-06  10.8619        16.292866      21.723799      3844.4927    
        27   0             -832.6272      -1.014227      -0.76421898    -1.5142431     -0.76421898    -1.3893669e-05 -1.2249989e-06 -7.2492469e-06  10.8619        16.292866      21.723799      3844.4927    
        28   0             -832.6272      -1.014227      -0.76421898    -1.5142431     -0.76421898     1.1413912e-05  1.0391011e-06  6.0627301e-06  10.8619        16.292866      21.723799      3844.4927    
        29   0             -832.6272      -1.014227      -0.76421898    -1.5142431     -0.76421898    -1.4729232e-05 -1.3694177e-06 -7.9169975e-06  10.8619        16.292866      21.723799      3844.4927    
        30   0             -832.6272      -1.014227      -0.76421898    -1.5142431     -0.76421898     1.3621516e-05  1.2778604e-06  7.3590243e-06  10.8619        16.292866      21.723799      3844.4927    
        31   0             -832.6272      -1.014227      -0.76421898    -1.5142431     -0.76421898    -1.3961346e-05 -1.3145008e-06 -7.5584107e-06  10.8619        16.292866      21.723799      3844.4927    
        32   0             -832.6272      -1.014227      -0.76421898    -1.5142431     -0.76421898     1.4153624e-05  1.335573e-06   7.6722628e-06  10.8619        16.292866      21.723799      3844.4927    
        33   0             -832.6272      -1.014227      -0.76421898    -1.5142431     -0.76421898    -1.3041258e-05 -1.2322733e-06 -7.0745769e-06  10.8619        16.292866      21.723799      3844.4927    
        34   0             -832.6272      -1.014227      -0.76421898    -1.5142431     -0.76421898     9.5069423e-06  8.9894151e-07  5.159321e-06   10.8619        16.292866      21.723799      3844.4927    
        35   0             -832.6272      -1.014227      -0.76421898    -1.5142431     -0.76421898    -1.0809964e-05 -1.0226418e-06 -5.8681272e-06  10.8619        16.292866      21.723799      3844.4927    
        36   0             -832.6272      -1.014227      -0.76421898    -1.5142431     -0.76421898     1.2497648e-05  1.1823805e-06  6.7848288e-06  10.8619        16.292866      21.723799      3844.4927    
        37   0             -832.6272      -1.014227      -0.76421898    -1.5142431     -0.76421898    -1.160408e-05  -1.0977751e-06 -6.2998627e-06  10.8619        16.292866      21.723799      3844.4927    
        38   0             -832.6272      -1.014227      -0.76421898    -1.5142431     -0.76421898     9.9778734e-06  9.4394032e-07  5.417107e-06   10.8619        16.292866      21.723799      3844.4927    
        39   0             -832.6272      -1.014227      -0.76421898    -1.5142431     -0.76421898    -8.7654566e-06 -8.2926706e-07 -4.7590139e-06  10.8619        16.292866      21.723799      3844.4927    
        40   0             -832.6272      -1.014227      -0.76421898    -1.5142431     -0.76421898     5.0831878e-06  4.8088758e-07  2.7599537e-06  10.8619        16.292866      21.723799      3844.4927    
        41   0             -832.6272      -1.014227      -0.76421898    -1.5142431     -0.76421898    -3.0891853e-06 -2.9222825e-07 -1.6773462e-06  10.8619        16.292866      21.723799      3844.4927    
        42   0             -832.6272      -1.014227      -0.76421898    -1.5142431     -0.76421898     2.3762534e-06  2.2479866e-07  1.2902839e-06  10.8619        16.292866      21.723799      3844.4927    
        43   0             -832.6272      -1.014227      -0.76421898    -1.5142431     -0.76421898    -8.5671078e-07 -8.105834e-08  -4.652524e-07   10.8619        16.292866      21.723799      3844.4927    
        44   0             -832.6272      -1.014227      -0.76421898    -1.5142431     -0.76421898     4.9640234e-07  4.6959622e-08  2.6973602e-07  10.8619        16.292866      21.723799      3844.4927    
        45   0             -832.6272      -1.014227      -0.76421898    -1.5142431     -0.76421898    -2.4113718e-07 -2.280174e-08  -1.3123348e-07  10.8619        16.292866      21.723799      3844.4927    
        46   0             -832.6272      -1.014227      -0.76421898    -1.5142431     -0.76421898     1.2783548e-07  1.2066274e-08  6.9884188e-08  10.8619        16.292866      21.723799      3844.4927    
        47   0             -832.6272      -1.014227      -0.76421898    -1.5142431     -0.76421898    -5.0431199e-08 -4.6962821e-09 -2.7793005e-08  10.8619        16.292866      21.723799      3844.4927    
        48   0             -832.6272      -1.014227      -0.76421898    -1.5142431     -0.76421898     2.7960493e-08  2.4667346e-09  1.5826612e-08  10.8619        16.292866      21.723799      3844.4927    
        49   0             -832.6272      -1.014227      -0.76421898    -1.5142431     -0.76421898    -1.146404e-08  -9.5700821e-10 -6.793906e-09   10.8619        16.292866      21.723799      3844.4927    
        50   0             -832.6272      -1.014227      -0.76421898    -1.5142431     -0.76421898     5.2093473e-09  4.2186761e-10  3.3043008e-09  10.8619        16.292866      21.723799      3844.4927    
        51   0             -832.6272      -1.014227      -0.76421898    -1.5142431     -0.76421898    -3.5255055e-09 -1.6863056e-10 -2.6310354e-09  10.8619        16.292866      21.723799      3844.4927    
        52   0             -832.6272      -1.014227      -0.76421898    -1.5142431     -0.76421898     1.3286216e-09 -8.2230906e-11  1.2424046e-09  10.8619        16.292866      21.723799      3844.4927    
        53   0             -832.6272      -1.014227      -0.76421898    -1.5142431     -0.76421898    -9.2633121e-10  1.8671993e-10 -1.2177242e-09  10.8619        16.292866      21.723799      3844.4927    
Loop time of 0.00519165 on 1 procs for 49 steps with 192 atoms

105.9% CPU use with 1 MPI tasks x no OpenMP threads

Minimization stats:
  Stopping criterion = force tolerance
  Energy initial, next-to-last, final = 
     -832.627199813066  -832.627199982311  -832.627199982311
  Force two-norm initial, final = 0.0029695447 6.949433e-11
  Force max component initial, final = 0.00032755643 9.8393989e-12
  Final line search alpha, max atom move = 1 9.8393989e-12
  Iterations, force evaluations = 49 98

MPI task timing breakdown:
Section |  min time  |  avg time  |  max time  |%varavg| %total
---------------------------------------------------------------
Pair    | 0.0047601  | 0.0047601  | 0.0047601  |   0.0 | 91.69
Neigh   | 0          | 0          | 0          |   0.0 |  0.00
Comm    | 9.6567e-05 | 9.6567e-05 | 9.6567e-05 |   0.0 |  1.86
Output  | 0.00018689 | 0.00018689 | 0.00018689 |   0.0 |  3.60
Modify  | 0          | 0          | 0          |   0.0 |  0.00
Other   |            | 0.0001481  |            |       |  2.85

Nlocal:            192 ave         192 max         192 min
Histogram: 1 0 0 0 0 0 0 0 0 0
Nghost:            634 ave         634 max         634 min
Histogram: 1 0 0 0 0 0 0 0 0 0
Neighs:              0 ave           0 max           0 min
Histogram: 1 0 0 0 0 0 0 0 0 0
FullNghs:         5376 ave        5376 max        5376 min
Histogram: 1 0 0 0 0 0 0 0 0 0

Total # of neighbors = 5376
Ave neighs/atom = 28
Neighbor list builds = 0
Dangerous builds = 0
System init for write_data ...
{"1":-7.6421897676749454462e-05, "2":-0.00015142431127844943324,"3":-7.6421897675716643473e-05,"4":-1.2177241506447292857e-13,"5":1.8671993484080719168e-14,"6":-9.2633121395935099266e-14}
delta/len0 = 1e-06 9.9999999999999995475e-07

The 'box' command has been removed and will be ignored

Reading restart file ...
  restart file = 2 Aug 2023, LAMMPS = 2 Aug 2023
  restoring atom style atomic from restart
  triclinic box = (-0.00094977841 -0.0014246676 -0.0018995568) to (10.86095 16.291425 21.7219) with tilt (0 0 0)
  1 by 1 by 1 MPI processor grid
  pair style sw stores no restart info
  192 atoms
  read_restart CPU = 0.000 seconds
Reading sw potential file Si.sw with DATE: 2007-06-11
Changing box ...
  triclinic box = (-0.00094977841 -0.0014246676 -0.0018995568) to (10.86095 16.291425 21.721878) with tilt (0 0 0)
Neighbor list info ...
  update: every = 1 steps, delay = 0 steps, check = yes
  max neighbors/atom: 2000, page size: 100000
  master list distance cutoff = 4.77118
  ghost atom cutoff = 4.77118
  1 neighbor lists, perpetual/occasional/extra = 1 0 0
  (1) pair sw, perpetual
      attributes: full, newton on
      pair build: full/nsq
      stencil: none
      bin: none
Setting up cg style minimization ...
  Unit style    : metal
  Current step  : 4
Per MPI rank memory allocation (min/avg/max) = 4.178 | 4.178 | 4.178 Mbytes
   Step          Temp          PotEng         Press           Pxx            Pyy            Pzz            Pxy            Pxz            Pyz             Lx             Ly             Lz           Volume    
         4   0             -832.6272       1.014293       0.76428836     0.76428335     1.5143073      1.3311022      0.060755787    0.50878637     10.8619        16.292849      21.723777      3844.485     
         5   0             -832.6272       1.0142322      0.76422412     0.76422441     1.514248      -0.33379801    -0.015238956   -0.12759696     10.8619        16.292849      21.723777      3844.485     
         6   0             -832.6272       1.0142304      0.76422216     0.76422267     1.5142465      0.28737881     0.013120072    0.10985627     10.8619        16.292849      21.723777      3844.485     
         7   0             -832.6272       1.0142305      0.76422255     0.76422264     1.5142464     -0.21303938    -0.0097267618  -0.081439471    10.8619        16.292849      21.723777      3844.485     
         8   0             -832.6272       1.0142306      0.76422269     0.76422266     1.5142465      0.11774379     0.0053762114   0.045010854    10.8619        16.292849      21.723777      3844.485     
         9   0             -832.6272       1.0142306      0.76422268     0.76422268     1.5142464     -0.069934085   -0.0031933637  -0.026734519    10.8619        16.292849      21.723777      3844.485     
        10   0             -832.6272       1.0142306      0.76422269     0.76422268     1.5142465      0.040262779    0.0018385912   0.015391874    10.8619        16.292849      21.723777      3844.485     
        11   0             -832.6272       1.0142306      0.7642227      0.76422271     1.5142465     -0.028340766   -0.0012942565  -0.010834372    10.8619        16.292849      21.723777      3844.485     
        12   0             -832.6272       1.0142306      0.76422271     0.7642227      1.5142465      0.012632872    0.00057697434  0.0048294838   10.8619        16.292849      21.723777      3844.485     
        13   0             -832.6272       1.0142306      0.7642227      0.76422271     1.5142465     -0.0063624101  -0.00029062883 -0.00243237     10.8619        16.292849      21.723777      3844.485     
        14   0             -832.6272       1.0142306      0.7642227      0.76422271     1.5142465      0.0034911239   0.00015951958  0.0013347269   10.8619        16.292849      21.723777      3844.485     
        15   0             -832.6272       1.0142306      0.7642227      0.76422271     1.5142465     -0.0018871572  -8.628124e-05  -0.00072155747  10.8619        16.292849      21.723777      3844.485     
        16   0             -832.6272       1.0142306      0.76422271     0.76422271     1.5142465      0.0012165152   5.5677178e-05  0.00046520481  10.8619        16.292849      21.723777      3844.485     
        17   0             -832.6272       1.0142306      0.76422271     0.76422271     1.5142465     -0.00083293886 -3.8176853e-05 -0.00031858487  10.8619        16.292849      21.723777      3844.485     
        18   0             -832.6272       1.0142306      0.76422271     0.76422271     1.5142465      0.00057604275  2.6485844e-05  0.00022042321  10.8619        16.292849      21.723777      3844.485     
        19   0             -832.6272       1.0142306      0.76422271     0.76422271     1.5142465     -0.00028629319 -1.3228087e-05 -0.00010962407  10.8619        16.292849      21.723777      3844.485     
        20   0             -832.6272       1.0142306      0.76422271     0.76422271     1.5142465      0.00013513391  6.332031e-06   5.1845454e-05  10.8619        16.292849      21.723777      3844.485     
        21   0             -832.6272       1.0142306      0.76422271     0.76422271     1.5142465     -7.4668478e-05 -3.6176648e-06 -2.8783353e-05  10.8619        16.292849      21.723777      3844.485     
        22   0             -832.6272       1.0142306      0.76422271     0.76422271     1.5142465      3.7921816e-05  1.9499439e-06  1.4747275e-05  10.8619        16.292849      21.723777      3844.485     
        23   0             -832.6272       1.0142306      0.76422271     0.76422271     1.5142465     -2.2338809e-05 -1.3010327e-06 -8.861636e-06   10.8619        16.292849      21.723777      3844.485     
        24   0             -832.6272       1.0142306      0.76422271     0.76422271     1.5142465      2.0583456e-05  1.3776078e-06  8.3700473e-06  10.8619        16.292849      21.723777      3844.485     
        25   0             -832.6272       1.0142306      0.76422271     0.76422271     1.5142465     -1.2806305e-05 -9.5846428e-07 -5.3237642e-06  10.8619        16.292849      21.723777      3844.485     
        26   0             -832.6272       1.0142306      0.76422271     0.76422271     1.5142465      1.6414723e-05  1.3563801e-06  6.9705125e-06  10.8619        16.292849      21.723777      3844.485     
        27   0             -832.6272       1.0142306      0.76422271     0.76422271     1.5142465     -1.4303393e-05 -1.2489095e-06 -6.1506848e-06  10.8619        16.292849      21.723777      3844.485     
        28   0             -832.6272       1.0142306      0.76422271     0.76422271     1.5142465      1.1773394e-05  1.0602068e-06  5.0994446e-06  10.8619        16.292849      21.723777      3844.485     
        29   0             -832.6272       1.0142306      0.76422271     0.76422271     1.5142465     -1.5213052e-05 -1.3979731e-06 -6.6211234e-06  10.8619        16.292849      21.723777      3844.485     
        30   0             -832.6272       1.0142306      0.76422271     0.76422271     1.5142465      1.4077031e-05  1.3048625e-06  6.1394358e-06  10.8619        16.292849      21.723777      3844.485     
        31   0             -832.6272       1.0142306      0.76422271     0.76422271     1.5142465     -1.4431745e-05 -1.3424691e-06 -6.2995331e-06  10.8619        16.292849      21.723777      3844.485     
        32   0             -832.6272       1.0142306      0.76422271     0.76422271     1.5142465      1.4632696e-05  1.364161e-06   6.3906209e-06  10.8619        16.292849      21.723777      3844.485     
        33   0             -832.6272       1.0142306      0.76422271     0.76422271     1.5142465     -1.3484282e-05 -1.258878e-06  -5.8909047e-06  10.8619        16.292849      21.723777      3844.485     
        34   0             -832.6272       1.0142306      0.76422271     0.76422271     1.5142465      9.8309267e-06  9.1848036e-07  4.2955696e-06  10.8619        16.292849      21.723777      3844.485     
        35   0             -832.6272       1.0142306      0.76422271     0.76422271     1.5142465     -1.1179418e-05 -1.0450596e-06 -4.8854505e-06  10.8619        16.292849      21.723777      3844.485     
        36   0             -832.6272       1.0142306      0.76422271     0.76422271     1.5142465      1.2928876e-05  1.2088264e-06  5.6502513e-06  10.8619        16.292849      21.723777      3844.485     
        37   0             -832.6272       1.0142306      0.76422271     0.76422271     1.5142465     -1.2015107e-05 -1.1234124e-06 -5.2510363e-06  10.8619        16.292849      21.723777      3844.485     
        38   0             -832.6272       1.0142306      0.76422271     0.76422271     1.5142465      1.0345897e-05  9.6733536e-07  4.5216312e-06  10.8619        16.292849      21.723777      3844.485     
        39   0             -832.6272       1.0142306      0.76422271     0.76422271     1.5142465     -9.1164957e-06 -8.523589e-07  -3.9843011e-06  10.8619        16.292849      21.723777      3844.485     
        40   0             -832.6272       1.0142306      0.76422271     0.76422271     1.5142465      5.3035173e-06  4.9586793e-07  2.3177599e-06  10.8619        16.292849      21.723777      3844.485     
        41   0             -832.6272       1.0142306      0.76422271     0.76422271     1.5142465     -3.2322817e-06 -3.0227681e-07 -1.412532e-06   10.8619        16.292849      21.723777      3844.485     
        42   0             -832.6272       1.0142306      0.76422271     0.76422271     1.5142465      2.4922722e-06  2.3311334e-07  1.0891168e-06  10.8619        16.292849      21.723777      3844.485     
        43   0             -832.6272       1.0142306      0.76422271     0.76422271     1.5142465     -8.9947454e-07 -8.4084207e-08 -3.9297568e-07  10.8619        16.292849      21.723777      3844.485     
        44   0             -832.6272       1.0142306      0.76422271     0.76422271     1.5142465      5.21292e-07    4.8710832e-08  2.2767695e-07  10.8619        16.292849      21.723777      3844.485     
        45   0             -832.6272       1.0142306      0.76422271     0.76422271     1.5142465     -2.5308866e-07 -2.3706161e-08 -1.1049806e-07  10.8619        16.292849      21.723777      3844.485     
        46   0             -832.6272       1.0142306      0.76422271     0.76422271     1.5142465      1.3392731e-07  1.2626314e-08  5.8366465e-08  10.8619        16.292849      21.723777      3844.485     
        47   0             -832.6272       1.0142306      0.76422271     0.76422271     1.5142465     -5.2741914e-08 -4.9682971e-09 -2.2930236e-08  10.8619        16.292849      21.723777      3844.485     
        48   0             -832.6272       1.0142306      0.76422271     0.76422271     1.5142465      2.9033016e-08  2.6633909e-09  1.255678e-08   10.8619        16.292849      21.723777      3844.485     
        49   0             -832.6272       1.0142306      0.76422271     0.76422271     1.5142465     -1.1659863e-08 -1.0079876e-09 -5.0361322e-09  10.8619        16.292849      21.723777      3844.485     
        50   0             -832.6272       1.0142306      0.76422271     0.76422271     1.5142465      4.9463743e-09  3.9817805e-10  2.1652404e-09  10.8619        16.292849      21.723777      3844.485     
        51   0             -832.6272       1.0142306      0.76422271     0.76422271     1.5142465     -2.7780924e-09 -2.850997e-10  -1.3295516e-09  10.8619        16.292849      21.723777      3844.485     
        52   0             -832.6272       1.0142306      0.76422271     0.76422271     1.5142465      3.9238449e-10  1.2069883e-10  3.1407184e-10  10.8619        16.292849      21.723777      3844.485     
        53   0             -832.6272       1.0142306      0.76422271     0.76422271     1.5142465      5.3624227e-10 -6.1880347e-11  7.4068178e-12  10.8619        16.292849      21.723777      3844.485     
Loop time of 0.00512205 on 1 procs for 49 steps with 192 atoms

106.1% CPU use with 1 MPI tasks x no OpenMP threads

Minimization stats:
  Stopping criterion = force tolerance
  Energy initial, next-to-last, final = 
     -832.627199813068  -832.627199982311  -832.627199982311
  Force two-norm initial, final = 0.0029695525 6.9489684e-11
  Force max component initial, final = 0.00032755726 9.8203924e-12
  Final line search alpha, max atom move = 1 9.8203924e-12
  Iterations, force evaluations = 49 98

MPI task timing breakdown:
Section |  min time  |  avg time  |  max time  |%varavg| %total
---------------------------------------------------------------
Pair    | 0.0046914  | 0.0046914  | 0.0046914  |   0.0 | 91.59
Neigh   | 0          | 0          | 0          |   0.0 |  0.00
Comm    | 9.5363e-05 | 9.5363e-05 | 9.5363e-05 |   0.0 |  1.86
Output  | 0.00018638 | 0.00018638 | 0.00018638 |   0.0 |  3.64
Modify  | 0          | 0          | 0          |   0.0 |  0.00
Other   |            | 0.000149   |            |       |  2.91

Nlocal:            192 ave         192 max         192 min
Histogram: 1 0 0 0 0 0 0 0 0 0
Nghost:            634 ave         634 max         634 min
Histogram: 1 0 0 0 0 0 0 0 0 0
Neighs:              0 ave           0 max           0 min
Histogram: 1 0 0 0 0 0 0 0 0 0
FullNghs:         5376 ave        5376 max        5376 min
Histogram: 1 0 0 0 0 0 0 0 0 0

Total # of neighbors = 5376
Ave neighs/atom = 28
Neighbor list builds = 0
Dangerous builds = 0
System init for write_data ...
{"1":7.642227089646677911e-05, "2":7.6422270884838304234e-05,"3":0.00015142464723329258805,"4":7.4068177774432443464e-16,"5":-6.1880346878502834667e-15,"6":5.3624226652545626409e-14}
delta/len0 = -1e-06 -9.9999999999999995475e-07

The 'box' command has been removed and will be ignored

Reading restart file ...
  restart file = 2 Aug 2023, LAMMPS = 2 Aug 2023
  restoring atom style atomic from restart
  triclinic box = (-0.00094977841 -0.0014246676 -0.0018995568) to (10.86095 16.291425 21.7219) with tilt (0 0 0)
  1 by 1 by 1 MPI processor grid
  pair style sw stores no restart info
  192 atoms
  read_restart CPU = 0.000 seconds
Reading sw potential file Si.sw with DATE: 2007-06-11
Changing box ...
  triclinic box = (-0.00094977841 -0.0014246676 -0.0018995568) to (10.86095 16.291425 21.721921) with tilt (0 0 0)
Neighbor list info ...
  update: every = 1 steps, delay = 0 steps, check = yes
  max neighbors/atom: 2000, page size: 100000
  master list distance cutoff = 4.77118
  ghost atom cutoff = 4.77118
  1 neighbor lists, perpetual/occasional/extra = 1 0 0
  (1) pair sw, perpetual
      attributes: full, newton on
      pair build: full/nsq
      stencil: none
      bin: none
Setting up cg style minimization ...
  Unit style    : metal
  Current step  : 4
Per MPI rank memory allocation (min/avg/max) = 4.178 | 4.178 | 4.178 Mbytes
   Step          Temp          PotEng         Press           Pxx            Pyy            Pzz            Pxy            Pxz            Pyz             Lx             Ly             Lz           Volume    
         4   0             -832.6272      -1.0141646     -0.76415333    -0.76415834    -1.5141823      1.3310957      0.060755476    0.50878376     10.8619        16.292849      21.723821      3844.4927    
         5   0             -832.6272      -1.0142255     -0.76421756    -0.76421727    -1.5142416     -0.33379602    -0.015238919   -0.12759664     10.8619        16.292849      21.723821      3844.4927    
         6   0             -832.6272      -1.0142272     -0.76421953    -0.76421902    -1.5142431      0.28737663     0.013120063    0.10985619     10.8619        16.292849      21.723821      3844.4927    
         7   0             -832.6272      -1.0142271     -0.76421913    -0.76421904    -1.5142432     -0.21303728    -0.0097267735  -0.081439571    10.8619        16.292849      21.723821      3844.4927    
         8   0             -832.6272      -1.014227      -0.76421899    -0.76421902    -1.5142431      0.11774229     0.0053762479   0.045011161    10.8619        16.292849      21.723821      3844.4927    
         9   0             -832.6272      -1.0142271     -0.76421901    -0.76421901    -1.5142431     -0.069933143   -0.0031934209  -0.026734999    10.8619        16.292849      21.723821      3844.4927    
        10   0             -832.6272      -1.014227      -0.76421899    -0.764219      -1.5142431      0.040262179    0.0018386547   0.015392406    10.8619        16.292849      21.723821      3844.4927    
        11   0             -832.6272      -1.014227      -0.76421899    -0.76421898    -1.5142431     -0.028340298   -0.0012943325  -0.010835008    10.8619        16.292849      21.723821      3844.4927    
        12   0             -832.6272      -1.014227      -0.76421898    -0.76421898    -1.5142431      0.012632628    0.0005770305   0.0048299537   10.8619        16.292849      21.723821      3844.4927    
        13   0             -832.6272      -1.014227      -0.76421899    -0.76421898    -1.5142431     -0.0063622544  -0.00029067799 -0.0024327815   10.8619        16.292849      21.723821      3844.4927    
        14   0             -832.6272      -1.014227      -0.76421898    -0.76421898    -1.5142431      0.0034910007   0.00015956715  0.0013351244   10.8619        16.292849      21.723821      3844.4927    
        15   0             -832.6272      -1.014227      -0.76421898    -0.76421898    -1.5142431     -0.0018870244  -8.6330793e-05 -0.00072197121  10.8619        16.292849      21.723821      3844.4927    
        16   0             -832.6272      -1.014227      -0.76421898    -0.76421898    -1.5142431      0.0012163604   5.573407e-05   0.00046568017  10.8619        16.292849      21.723821      3844.4927    
        17   0             -832.6272      -1.014227      -0.76421898    -0.76421898    -1.5142431     -0.00083275975 -3.8240551e-05 -0.00031911777  10.8619        16.292849      21.723821      3844.4927    
        18   0             -832.6272      -1.014227      -0.76421898    -0.76421898    -1.5142431      0.00057579968  2.6565958e-05  0.00022109488  10.8619        16.292849      21.723821      3844.4927    
        19   0             -832.6272      -1.014227      -0.76421898    -0.76421898    -1.5142431     -0.00028608115 -1.3296238e-05 -0.00011019584  10.8619        16.292849      21.723821      3844.4927    
        20   0             -832.6272      -1.014227      -0.76421898    -0.76421898    -1.5142431      0.00013490866  6.4026945e-06  5.24386e-05    10.8619        16.292849      21.723821      3844.4927    
        21   0             -832.6272      -1.014227      -0.76421898    -0.76421898    -1.5142431     -7.4375922e-05 -3.7086594e-06 -2.9547757e-05  10.8619        16.292849      21.723821      3844.4927    
        22   0             -832.6272      -1.014227      -0.76421898    -0.76421898    -1.5142431      3.7614528e-05  2.0452308e-06  1.5548364e-05  10.8619        16.292849      21.723821      3844.4927    
        23   0             -832.6272      -1.014227      -0.76421898    -0.76421898    -1.5142431     -2.1942677e-05 -1.4235815e-06 -9.8927421e-06  10.8619        16.292849      21.723821      3844.4927    
        24   0             -832.6272      -1.014227      -0.76421898    -0.76421898    -1.5142431      1.9965807e-05  1.5684688e-06  9.9761015e-06  10.8619        16.292849      21.723821      3844.4927    
        25   0             -832.6272      -1.014227      -0.76421898    -0.76421898    -1.5142431     -1.2278517e-05 -1.1215613e-06 -6.6955664e-06  10.8619        16.292849      21.723821      3844.4927    
        26   0             -832.6272      -1.014227      -0.76421898    -0.76421898    -1.5142431      1.5557093e-05  1.6214539e-06  9.1986812e-06  10.8619        16.292849      21.723821      3844.4927    
        27   0             -832.6272      -1.014227      -0.76421898    -0.76421898    -1.5142431     -1.346084e-05  -1.509165e-06  -8.3383967e-06  10.8619        16.292849      21.723821      3844.4927    
        28   0             -832.6272      -1.014227      -0.76421898    -0.76421898    -1.5142431      1.1034221e-05  1.2883306e-06  7.0177613e-06  10.8619        16.292849      21.723821      3844.4927    
        29   0             -832.6272      -1.014227      -0.76421898    -0.76421898    -1.5142431     -1.421818e-05  -1.7047833e-06 -9.2018026e-06  10.8619        16.292849      21.723821      3844.4927    
        30   0             -832.6272      -1.014227      -0.76421898    -0.76421898    -1.5142431      1.3140275e-05  1.5934421e-06  8.5681543e-06  10.8619        16.292849      21.723821      3844.4927    
        31   0             -832.6272      -1.014227      -0.76421898    -0.76421898    -1.5142431     -1.3464153e-05 -1.6401448e-06 -8.8062926e-06  10.8619        16.292849      21.723821      3844.4927    
        32   0             -832.6272      -1.014227      -0.76421898    -0.76421898    -1.5142431      1.3646618e-05  1.6669442e-06  8.9423805e-06  10.8619        16.292849      21.723821      3844.4927    
        33   0             -832.6272      -1.014227      -0.76421898    -0.76421898    -1.5142431     -1.2572018e-05 -1.5381821e-06 -8.247442e-06   10.8619        16.292849      21.723821      3844.4927    
        34   0             -832.6272      -1.014227      -0.76421898    -0.76421898    -1.5142431      9.1630798e-06  1.1219917e-06  6.0145826e-06  10.8619        16.292849      21.723821      3844.4927    
        35   0             -832.6272      -1.014227      -0.76421898    -0.76421898    -1.5142431     -1.0416693e-05 -1.2761789e-06 -6.8403803e-06  10.8619        16.292849      21.723821      3844.4927    
[...]
        18   0             -832.6272      -1.8186037e-07 -5.7725558e-07  1.7491536e-07 -1.4324089e-07 -0.5637191      5.9267493e-05  0.00049404256  10.8619        16.292849      21.723799      3844.4888    
        19   0             -832.6272      -1.8107406e-07 -5.7816854e-07  1.7674054e-07 -1.4179417e-07 -0.56487716    -2.9484153e-05 -0.00024500258  10.8619        16.292849      21.723799      3844.4888    
        20   0             -832.6272      -1.8122502e-07 -5.7719042e-07  1.7634727e-07 -1.428319e-07  -0.56431438     1.3895763e-05  0.00011441726  10.8619        16.292849      21.723799      3844.4888    
        21   0             -832.6272      -1.8095407e-07 -5.7731963e-07  1.7690522e-07 -1.4244779e-07 -0.56458921    -7.6398155e-06 -6.1485403e-05  10.8619        16.292849      21.723799      3844.4888    
        22   0             -832.6272      -1.8104065e-07 -5.7706953e-07  1.7672708e-07 -1.427795e-07  -0.56444759     3.8428975e-06  2.9576541e-05  10.8619        16.292849      21.723799      3844.4888    
        23   0             -832.6272      -1.8101834e-07 -5.7712828e-07  1.7680925e-07 -1.4273599e-07 -0.5645164     -2.2128819e-06 -1.5183371e-05  10.8619        16.292849      21.723799      3844.4888    
        24   0             -832.6272      -1.8102233e-07 -5.7703363e-07  1.7677653e-07 -1.4280988e-07 -0.56447677     1.9794245e-06  1.1362491e-05  10.8619        16.292849      21.723799      3844.4888    
        25   0             -832.6272      -1.8096772e-07 -5.770247e-07   1.7685558e-07 -1.4273403e-07 -0.56450107    -1.1976327e-06 -5.5765047e-06  10.8619        16.292849      21.723799      3844.4888    
        26   0             -832.6272      -1.8098872e-07 -5.7702331e-07  1.7682225e-07 -1.427651e-07  -0.5644868      1.4924029e-06  5.2650933e-06  10.8619        16.292849      21.723799      3844.4888    
        27   0             -832.6272      -1.8095855e-07 -5.7700887e-07  1.7686291e-07 -1.427297e-07  -0.56449736    -1.278027e-06  -3.6014679e-06  10.8619        16.292849      21.723799      3844.4888    
        28   0             -832.6272      -1.8096707e-07 -5.7699932e-07  1.7685103e-07 -1.4275294e-07 -0.56449091     1.0412966e-06  2.4929531e-06  10.8619        16.292849      21.723799      3844.4888    
        29   0             -832.6272      -1.8093319e-07 -5.769821e-07   1.7688963e-07 -1.4270712e-07 -0.56449582    -1.336362e-06  -2.8121427e-06  10.8619        16.292849      21.723799      3844.4888    
        30   0             -832.6272      -1.8097512e-07 -5.7701431e-07  1.7683752e-07 -1.4274858e-07 -0.56449139     1.2333242e-06  2.4387093e-06  10.8619        16.292849      21.723799      3844.4888    
        31   0             -832.6272      -1.8097825e-07 -5.7702374e-07  1.7684195e-07 -1.4275296e-07 -0.56449528    -1.2639602e-06 -2.433112e-06   10.8619        16.292849      21.723799      3844.4888    
        32   0             -832.6272      -1.8096967e-07 -5.7701442e-07  1.7684753e-07 -1.4274213e-07 -0.5644915      1.2823608e-06  2.4275743e-06  10.8619        16.292849      21.723799      3844.4888    
        33   0             -832.6272      -1.8099544e-07 -5.7703247e-07  1.7681598e-07 -1.4276982e-07 -0.56449505    -1.1838998e-06 -2.2187315e-06  10.8619        16.292849      21.723799      3844.4888    
        34   0             -832.6272      -1.8093942e-07 -5.7697418e-07  1.7687118e-07 -1.4271525e-07 -0.56449215     8.66797e-07    1.6158578e-06  10.8619        16.292849      21.723799      3844.4888    
        35   0             -832.6272      -1.8095483e-07 -5.7699499e-07  1.7685862e-07 -1.4272813e-07 -0.56449474    -9.913413e-07  -1.8405702e-06  10.8619        16.292849      21.723799      3844.4888    
        36   0             -832.6272      -1.8093957e-07 -5.7697548e-07  1.7688213e-07 -1.4272536e-07 -0.56449175     1.1689038e-06  2.1673499e-06  10.8619        16.292849      21.723799      3844.4888    
        37   0             -832.6272      -1.8095619e-07 -5.7699573e-07  1.768582e-07  -1.4273103e-07 -0.56449495    -1.1470271e-06 -2.1258211e-06  10.8619        16.292849      21.723799      3844.4888    
        38   0             -832.6272      -1.8094763e-07 -5.7698257e-07  1.768621e-07  -1.4272243e-07 -0.56449187     1.0837735e-06  2.0081726e-06  10.8619        16.292849      21.723799      3844.4888    
        39   0             -832.6272      -1.8098408e-07 -5.770256e-07   1.7683296e-07 -1.427596e-07  -0.56449504    -1.2091426e-06 -2.2403194e-06  10.8619        16.292849      21.723799      3844.4888    
        40   0             -832.6272      -1.8098737e-07 -5.7702093e-07  1.7683527e-07 -1.4277645e-07 -0.56449203     9.7183043e-07  1.8005371e-06  10.8619        16.292849      21.723799      3844.4888    
        41   0             -832.6272      -1.809512e-07  -5.7699149e-07  1.7686336e-07 -1.4272546e-07 -0.56449464    -9.2433781e-07 -1.712627e-06   10.8619        16.292849      21.723799      3844.4888    
        42   0             -832.6272      -1.8094488e-07 -5.7698086e-07  1.7686956e-07 -1.4272334e-07 -0.56449149     1.3582688e-06  2.5167899e-06  10.8619        16.292849      21.723799      3844.4888    
        43   0             -832.6272      -1.8095626e-07 -5.7699677e-07  1.7685581e-07 -1.4272782e-07 -0.56449453    -8.38311e-07   -1.5535642e-06  10.8619        16.292849      21.723799      3844.4888    
        44   0             -832.6272      -1.8098404e-07 -5.7701923e-07  1.7682931e-07 -1.4276219e-07 -0.56449238     7.1261626e-07  1.3208822e-06  10.8619        16.292849      21.723799      3844.4888    
        45   0             -832.6272      -1.8096701e-07 -5.770063e-07   1.7684618e-07 -1.4274091e-07 -0.56449398    -4.4650962e-07 -8.2776779e-07  10.8619        16.292849      21.723799      3844.4888    
        46   0             -832.6272      -1.8098977e-07 -5.7702404e-07  1.7682876e-07 -1.4277402e-07 -0.56449301     2.6169207e-07  4.8517442e-07  10.8619        16.292849      21.723799      3844.4888    
        47   0             -832.6272      -1.8098578e-07 -5.7701838e-07  1.7682227e-07 -1.4276123e-07 -0.56449352    -1.1066799e-07 -2.0512848e-07  10.8619        16.292849      21.723799      3844.4888    
        48   0             -832.6272      -1.8097932e-07 -5.7702013e-07  1.7683257e-07 -1.4275039e-07 -0.56449328     6.2597639e-08  1.1584672e-07  10.8619        16.292849      21.723799      3844.4888    
        49   0             -832.6272      -1.8096794e-07 -5.7700139e-07  1.7685228e-07 -1.4275472e-07 -0.5644934     -2.5931346e-08 -4.7876797e-08  10.8619        16.292849      21.723799      3844.4888    
        50   0             -832.6272      -1.8096353e-07 -5.7700091e-07  1.7685079e-07 -1.4274049e-07 -0.56449335     1.1652007e-08  2.1371125e-08  10.8619        16.292849      21.723799      3844.4888    
        51   0             -832.6272      -1.8097076e-07 -5.7700779e-07  1.7684664e-07 -1.4275112e-07 -0.56449338    -7.5016158e-09 -1.3533626e-08  10.8619        16.292849      21.723799      3844.4888    
        52   0             -832.6272      -1.8097662e-07 -5.7701383e-07  1.7683977e-07 -1.4275581e-07 -0.56449336     2.3426003e-09  3.9682637e-09  10.8619        16.292849      21.723799      3844.4888    
        53   0             -832.6272      -1.8096918e-07 -5.7700742e-07  1.7684415e-07 -1.4274426e-07 -0.56449337    -1.1104243e-09 -1.5810251e-09  10.8619        16.292849      21.723799      3844.4888    
Loop time of 0.00491523 on 1 procs for 49 steps with 192 atoms

106.1% CPU use with 1 MPI tasks x no OpenMP threads

Minimization stats:
  Stopping criterion = force tolerance
  Energy initial, next-to-last, final = 
     -832.627199816761  -832.627199983438  -832.627199983438
  Force two-norm initial, final = 0.0029379454 6.9475124e-11
  Force max component initial, final = 0.0003293574 9.8335993e-12
  Final line search alpha, max atom move = 1 9.8335993e-12
  Iterations, force evaluations = 49 98

MPI task timing breakdown:
Section |  min time  |  avg time  |  max time  |%varavg| %total
---------------------------------------------------------------
Pair    | 0.0044957  | 0.0044957  | 0.0044957  |   0.0 | 91.46
Neigh   | 0          | 0          | 0          |   0.0 |  0.00
Comm    | 9.4806e-05 | 9.4806e-05 | 9.4806e-05 |   0.0 |  1.93
Output  | 0.00018064 | 0.00018064 | 0.00018064 |   0.0 |  3.68
Modify  | 0          | 0          | 0          |   0.0 |  0.00
Other   |            | 0.0001441  |            |       |  2.93

Nlocal:            192 ave         192 max         192 min
Histogram: 1 0 0 0 0 0 0 0 0 0
Nghost:            634 ave         634 max         634 min
Histogram: 1 0 0 0 0 0 0 0 0 0
Neighs:              0 ave           0 max           0 min
Histogram: 1 0 0 0 0 0 0 0 0 0
FullNghs:         5376 ave        5376 max        5376 min
Histogram: 1 0 0 0 0 0 0 0 0 0

Total # of neighbors = 5376
Ave neighs/atom = 28
Neighbor list builds = 0
Dangerous builds = 0

variable tag string "${dir}+"
6+
write_data o.pos_${tag}.data
write_data o.pos_6+.data
System init for write_data ...
print '{"1":$(pxx*v_cfac), "2":$(pyy*v_cfac),"3":$(pzz*v_cfac),"4":$(pyz*v_cfac),"5":$(pxz*v_cfac),"6":$(pxy*v_cfac)}' file o.stress_${tag}.json
print '{"1":$(pxx*v_cfac), "2":$(pyy*v_cfac),"3":$(pzz*v_cfac),"4":$(pyz*v_cfac),"5":$(pxz*v_cfac),"6":$(pxy*v_cfac)}' file o.stress_6+.json
{"1":-5.7700741734344102963e-11, "2":1.7684414997122981646e-11,"3":-1.4274426409059289072e-11,"4":-1.5810251003520888702e-13,"5":-1.1104243492440160052e-13,"6":-5.6449336851489343683e-05}

# Obtain new stress tensor

variable tmp equal pe
variable e1 equal ${tmp}
variable e1 equal -832.627199983438
variable tmp equal press
variable p1 equal ${tmp}
variable p1 equal -1.80969177154268e-07
variable tmp equal pxx
variable pxx1 equal ${tmp}
variable pxx1 equal -5.77007417343441e-07
variable tmp equal pyy
variable pyy1 equal ${tmp}
variable pyy1 equal 1.7684414997123e-07
variable tmp equal pzz
variable pzz1 equal ${tmp}
variable pzz1 equal -1.42744264090593e-07
variable tmp equal pxy
variable pxy1 equal ${tmp}
variable pxy1 equal -0.564493368514893
variable tmp equal pxz
variable pxz1 equal ${tmp}
variable pxz1 equal -1.11042434924402e-09
variable tmp equal pyz
variable pyz1 equal ${tmp}
variable pyz1 equal -1.58102510035209e-09

# Compute elastic constant from pressure tensor

variable C1pos equal ${d1}
variable C1pos equal 5.76984707674241e-05
variable C2pos equal ${d2}
variable C2pos equal -1.76932157801357e-05
variable C3pos equal ${d3}
variable C3pos equal 1.42731800459098e-05
variable C4pos equal ${d4}
variable C4pos equal 1.35269064262336e-07
variable C5pos equal ${d5}
variable C5pos equal 1.2347666543819e-07
variable C6pos equal ${d6}
variable C6pos equal 56.4493369106519

print "delta/len0 = ${TEST} $(v_TEST)"
delta/len0 = 1e-06 9.9999999999999995475e-07

# Combine positive and negative

variable C1${dir} equal 0.5*(${C1neg}+${C1pos})
variable C16 equal 0.5*(${C1neg}+${C1pos})
variable C16 equal 0.5*(-5.77019488468989e-05+${C1pos})
variable C16 equal 0.5*(-5.77019488468989e-05+5.76984707674241e-05)
variable C2${dir} equal 0.5*(${C2neg}+${C2pos})
variable C26 equal 0.5*(${C2neg}+${C2pos})
variable C26 equal 0.5*(1.76896472210994e-05+${C2pos})
variable C26 equal 0.5*(1.76896472210994e-05+-1.76932157801357e-05)
variable C3${dir} equal 0.5*(${C3neg}+${C3pos})
variable C36 equal 0.5*(${C3neg}+${C3pos})
variable C36 equal 0.5*(-1.42773345290698e-05+${C3pos})
variable C36 equal 0.5*(-1.42773345290698e-05+1.42731800459098e-05)
variable C4${dir} equal 0.5*(${C4neg}+${C4pos})
variable C46 equal 0.5*(${C4neg}+${C4pos})
variable C46 equal 0.5*(-6.99949873361021e-08+${C4pos})
variable C46 equal 0.5*(-6.99949873361021e-08+1.35269064262336e-07)
variable C5${dir} equal 0.5*(${C5neg}+${C5pos})
variable C56 equal 0.5*(${C5neg}+${C5pos})
variable C56 equal 0.5*(2.50591513889198e-08+${C5pos})
variable C56 equal 0.5*(2.50591513889198e-08+1.2347666543819e-07)
variable C6${dir} equal 0.5*(${C6neg}+${C6pos})
variable C66 equal 0.5*(${C6neg}+${C6pos})
variable C66 equal 0.5*(56.4493362775671+${C6pos})
variable C66 equal 0.5*(56.4493362775671+56.4493369106519)

# Delete dir to make sure it is not reused

variable dir delete

# Output final values

variable C11all equal ${C11}
variable C11all equal 151.424479257262
variable C22all equal ${C22}
variable C22all equal 151.424479241638
variable C33all equal ${C33}
variable C33all equal 151.424479259104

variable C12all equal 0.5*(${C12}+${C21})
variable C12all equal 0.5*(76.4220842829147+${C21})
variable C12all equal 0.5*(76.4220842829147+76.422084288605)
variable C13all equal 0.5*(${C13}+${C31})
variable C13all equal 0.5*(76.4220842918168+${C31})
variable C13all equal 0.5*(76.4220842918168+76.4220842891906)
variable C23all equal 0.5*(${C23}+${C32})
variable C23all equal 0.5*(76.4220842917516+${C32})
variable C23all equal 0.5*(76.4220842917516+76.422084282264)

variable C44all equal ${C44}
variable C44all equal 56.449336690747
variable C55all equal ${C55}
variable C55all equal 56.4493367928892
variable C66all equal ${C66}
variable C66all equal 56.4493365941095

variable C14all equal 0.5*(${C14}+${C41})
variable C14all equal 0.5*(-2.17476992169976e-09+${C41})
variable C14all equal 0.5*(-2.17476992169976e-09+-4.86380243075186e-08)
variable C15all equal 0.5*(${C15}+${C51})
variable C15all equal 0.5*(-4.61815613352133e-10+${C51})
variable C15all equal 0.5*(-4.61815613352133e-10+-3.17535379479349e-08)
variable C16all equal 0.5*(${C16}+${C61})
variable C16all equal 0.5*(-1.73903973739911e-09+${C61})
variable C16all equal 0.5*(-1.73903973739911e-09+-2.70264771493475e-08)

variable C24all equal 0.5*(${C24}+${C42})
variable C24all equal 0.5*(-1.7640038622013e-09+${C42})
variable C24all equal 0.5*(-1.7640038622013e-09+3.61731697231734e-08)
variable C25all equal 0.5*(${C25}+${C52})
variable C25all equal 0.5*(-1.22625169799975e-09+${C52})
variable C25all equal 0.5*(-1.22625169799975e-09+-4.41694739938469e-08)
variable C26all equal 0.5*(${C26}+${C62})
variable C26all equal 0.5*(-1.78427951815035e-09+${C62})
variable C26all equal 0.5*(-1.78427951815035e-09+-9.693935599953e-09)

variable C34all equal 0.5*(${C34}+${C43})
variable C34all equal 0.5*(-1.78032566419942e-09+${C43})
variable C34all equal 0.5*(-1.78032566419942e-09+5.74810182504446e-08)
variable C35all equal 0.5*(${C35}+${C53})
variable C35all equal 0.5*(-1.73173644999922e-10+${C53})
variable C35all equal 0.5*(-1.73173644999922e-10+-3.09358540667402e-08)
variable C36all equal 0.5*(${C36}+${C63})
variable C36all equal 0.5*(-2.07724158000017e-09+${C63})
variable C36all equal 0.5*(-2.07724158000017e-09+2.48779369531e-08)

variable C45all equal 0.5*(${C45}+${C54})
variable C45all equal 0.5*(4.63916623195198e-08+${C54})
variable C45all equal 0.5*(4.63916623195198e-08+1.5944140354537e-07)
variable C46all equal 0.5*(${C46}+${C64})
variable C46all equal 0.5*(3.26370384631169e-08+${C64})
variable C46all equal 0.5*(3.26370384631169e-08+2.67599627988355e-08)
variable C56all equal 0.5*(${C56}+${C65})
variable C56all equal 0.5*(7.42679084135549e-08+${C65})
variable C56all equal 0.5*(7.42679084135549e-08+4.2269619156555e-08)

# Average moduli for cubic crystals

variable C11cubic equal (${C11all}+${C22all}+${C33all})/3.0
variable C11cubic equal (151.424479257262+${C22all}+${C33all})/3.0
variable C11cubic equal (151.424479257262+151.424479241638+${C33all})/3.0
variable C11cubic equal (151.424479257262+151.424479241638+151.424479259104)/3.0
variable C12cubic equal (${C12all}+${C13all}+${C23all})/3.0
variable C12cubic equal (76.4220842857599+${C13all}+${C23all})/3.0
variable C12cubic equal (76.4220842857599+76.4220842905037+${C23all})/3.0
variable C12cubic equal (76.4220842857599+76.4220842905037+76.4220842870078)/3.0
variable C44cubic equal (${C44all}+${C55all}+${C66all})/3.0
variable C44cubic equal (56.449336690747+${C55all}+${C66all})/3.0
variable C44cubic equal (56.449336690747+56.4493367928892+${C66all})/3.0
variable C44cubic equal (56.449336690747+56.4493367928892+56.4493365941095)/3.0

variable bulkmodulus equal (${C11cubic}+2*${C12cubic})/3.0
variable bulkmodulus equal (151.424479252668+2*${C12cubic})/3.0
variable bulkmodulus equal (151.424479252668+2*76.4220842877571)/3.0
variable shearmodulus1 equal ${C44cubic}
variable shearmodulus1 equal 56.4493366925819
variable shearmodulus2 equal (${C11cubic}-${C12cubic})/2.0
variable shearmodulus2 equal (151.424479252668-${C12cubic})/2.0
variable shearmodulus2 equal (151.424479252668-76.4220842877571)/2.0
variable poissonratio equal 1.0/(1.0+${C11cubic}/${C12cubic})
variable poissonratio equal 1.0/(1.0+151.424479252668/${C12cubic})
variable poissonratio equal 1.0/(1.0+151.424479252668/76.4220842877571)

# For Stillinger-Weber silicon, the analytical results
# are known to be (E. R. Cowley, 1988):
#               C11 = 151.4 GPa
#               C12 = 76.4 GPa
#               C44 = 56.4 GPa

print "========================================="
=========================================
print "Components of the Elastic Constant Tensor"
Components of the Elastic Constant Tensor
print "========================================="
=========================================

print "Elastic Constant C11all = ${C11all} ${cunits}"
Elastic Constant C11all = 151.424479257262 GPa
print "Elastic Constant C22all = ${C22all} ${cunits}"
Elastic Constant C22all = 151.424479241638 GPa
print "Elastic Constant C33all = ${C33all} ${cunits}"
Elastic Constant C33all = 151.424479259104 GPa

print "Elastic Constant C12all = ${C12all} ${cunits}"
Elastic Constant C12all = 76.4220842857599 GPa
print "Elastic Constant C13all = ${C13all} ${cunits}"
Elastic Constant C13all = 76.4220842905037 GPa
print "Elastic Constant C23all = ${C23all} ${cunits}"
Elastic Constant C23all = 76.4220842870078 GPa

print "Elastic Constant C44all = ${C44all} ${cunits}"
Elastic Constant C44all = 56.449336690747 GPa
print "Elastic Constant C55all = ${C55all} ${cunits}"
Elastic Constant C55all = 56.4493367928892 GPa
print "Elastic Constant C66all = ${C66all} ${cunits}"
Elastic Constant C66all = 56.4493365941095 GPa

print "Elastic Constant C14all = ${C14all} ${cunits}"
Elastic Constant C14all = -2.54063971146092e-08 GPa
print "Elastic Constant C15all = ${C15all} ${cunits}"
Elastic Constant C15all = -1.61076767806435e-08 GPa
print "Elastic Constant C16all = ${C16all} ${cunits}"
Elastic Constant C16all = -1.43827584433733e-08 GPa

print "Elastic Constant C24all = ${C24all} ${cunits}"
Elastic Constant C24all = 1.7204582930486e-08 GPa
print "Elastic Constant C25all = ${C25all} ${cunits}"
Elastic Constant C25all = -2.26978628459233e-08 GPa
print "Elastic Constant C26all = ${C26all} ${cunits}"
Elastic Constant C26all = -5.73910755905167e-09 GPa

print "Elastic Constant C34all = ${C34all} ${cunits}"
Elastic Constant C34all = 2.78503462931226e-08 GPa
print "Elastic Constant C35all = ${C35all} ${cunits}"
Elastic Constant C35all = -1.55545138558701e-08 GPa
print "Elastic Constant C36all = ${C36all} ${cunits}"
Elastic Constant C36all = 1.14003476865499e-08 GPa

print "Elastic Constant C45all = ${C45all} ${cunits}"
Elastic Constant C45all = 1.02916532932445e-07 GPa
print "Elastic Constant C46all = ${C46all} ${cunits}"
Elastic Constant C46all = 2.96985006309762e-08 GPa
print "Elastic Constant C56all = ${C56all} ${cunits}"
Elastic Constant C56all = 5.82687637850549e-08 GPa

print "========================================="
=========================================
print "Average properties for a cubic crystal"
Average properties for a cubic crystal
print "========================================="
=========================================

print "Bulk Modulus = ${bulkmodulus} ${cunits}"
Bulk Modulus = 101.422882609394 GPa
print "Shear Modulus 1 = ${shearmodulus1} ${cunits}"
Shear Modulus 1 = 56.4493366925819 GPa
print "Shear Modulus 2 = ${shearmodulus2} ${cunits}"
Shear Modulus 2 = 37.5011974824554 GPa
print "Poisson Ratio = ${poissonratio}"
Poisson Ratio = 0.335410300248826
Total wall time: 0:00:00
