5
energy=-41291.663668335 Lattice="2.095752591 -3.629948275 0.000000000 2.095752591 3.629948275 0.000000000 0.000000000 0.000000000 29.928524810" virial="-0.053934962 0.000000000 0.000000000 0.000000000 -0.053934962 0.000000000 0.000000000 0.000000000 -0.713279420" Properties=species:S:1:pos:R:3:forces:R:3 weight=1.0
Se 0.000000000 0.000000000 0.017540611 1.100000000 1.200000000 1.300000000
Bi 2.095749238 1.209979824 1.563180362 2.100000000 2.200000000 2.300000000
Se 2.095749238 -1.209979824 3.520137965 3.100000000 3.200000000 3.300000000
Bi 0.000000000 0.000000000 5.477101436 4.100000000 4.200000000 4.300000000
Se 2.095749238 1.209979824 7.022743702 5.100000000 5.200000000 5.300000000
