ITEM: TIMESTEP
0
ITEM: NUMBER OF ATOMS
3200    
ITEM: BOX BOUNDS pp pp pp
0.000000000      491.902429400   
0.000000000      17.040000000    
0.000000000      20.000000000    
ITEM: ATOMS id mol type xu yu zu
1 1 1 1.229756 0.000000 0.000000
2 1 1 0.000000 0.710000 0.000000
3 1 1 0.000000 2.130000 0.000000
4 1 1 1.229756 2.840000 0.000000
5 1 1 3.689268 0.000000 0.000000
6 1 1 2.459512 0.710000 0.000000
7 1 1 2.459512 2.130000 0.000000
8 1 1 3.689268 2.840000 0.000000
9 1 1 6.148780 0.000000 0.000000
10 1 1 4.919024 0.710000 0.000000
11 1 1 4.919024 2.130000 0.000000
12 1 1 6.148780 2.840000 0.000000
13 1 1 8.608293 0.000000 0.000000
14 1 1 7.378536 0.710000 0.000000
15 1 1 7.378536 2.130000 0.000000
16 1 1 8.608293 2.840000 0.000000
17 1 1 11.067805 0.000000 0.000000
18 1 1 9.838049 0.710000 0.000000
19 1 1 9.838049 2.130000 0.000000
20 1 1 11.067805 2.840000 0.000000
21 1 1 13.527317 0.000000 0.000000
22 1 1 12.297561 0.710000 0.000000
23 1 1 12.297561 2.130000 0.000000
24 1 1 13.527317 2.840000 0.000000
25 1 1 15.986829 0.000000 0.000000
26 1 1 14.757073 0.710000 0.000000
27 1 1 14.757073 2.130000 0.000000
28 1 1 15.986829 2.840000 0.000000
29 1 1 18.446341 0.000000 0.000000
30 1 1 17.216585 0.710000 0.000000
31 1 1 17.216585 2.130000 0.000000
32 1 1 18.446341 2.840000 0.000000
33 1 1 20.905853 0.000000 0.000000
34 1 1 19.676097 0.710000 0.000000
35 1 1 19.676097 2.130000 0.000000
36 1 1 20.905853 2.840000 0.000000
37 1 1 23.365365 0.000000 0.000000
38 1 1 22.135609 0.710000 0.000000
39 1 1 22.135609 2.130000 0.000000
40 1 1 23.365365 2.840000 0.000000
41 1 1 25.824878 0.000000 0.000000
42 1 1 24.595121 0.710000 0.000000
43 1 1 24.595121 2.130000 0.000000
44 1 1 25.824878 2.840000 0.000000
45 1 1 28.284390 0.000000 0.000000
46 1 1 27.054634 0.710000 0.000000
47 1 1 27.054634 2.130000 0.000000
48 1 1 28.284390 2.840000 0.000000
49 1 1 30.743902 0.000000 0.000000
50 1 1 29.514146 0.710000 0.000000
51 1 1 29.514146 2.130000 0.000000
52 1 1 30.743902 2.840000 0.000000
53 1 1 33.203414 0.000000 0.000000
54 1 1 31.973658 0.710000 0.000000
55 1 1 31.973658 2.130000 0.000000
56 1 1 33.203414 2.840000 0.000000
57 1 1 35.662926 0.000000 0.000000
58 1 1 34.433170 0.710000 0.000000
59 1 1 34.433170 2.130000 0.000000
60 1 1 35.662926 2.840000 0.000000
61 1 1 38.122438 0.000000 0.000000
62 1 1 36.892682 0.710000 0.000000
63 1 1 36.892682 2.130000 0.000000
64 1 1 38.122438 2.840000 0.000000
65 1 1 40.581950 0.000000 0.000000
66 1 1 39.352194 0.710000 0.000000
67 1 1 39.352194 2.130000 0.000000
68 1 1 40.581950 2.840000 0.000000
69 1 1 43.041463 0.000000 0.000000
70 1 1 41.811706 0.710000 0.000000
71 1 1 41.811706 2.130000 0.000000
72 1 1 43.041463 2.840000 0.000000
73 1 1 45.500975 0.000000 0.000000
74 1 1 44.271219 0.710000 0.000000
75 1 1 44.271219 2.130000 0.000000
76 1 1 45.500975 2.840000 0.000000
77 1 1 47.960487 0.000000 0.000000
78 1 1 46.730731 0.710000 0.000000
79 1 1 46.730731 2.130000 0.000000
80 1 1 47.960487 2.840000 0.000000
81 1 1 50.419999 0.000000 0.000000
82 1 1 49.190243 0.710000 0.000000
83 1 1 49.190243 2.130000 0.000000
84 1 1 50.419999 2.840000 0.000000
85 1 1 52.879511 0.000000 0.000000
86 1 1 51.649755 0.710000 0.000000
87 1 1 51.649755 2.130000 0.000000
88 1 1 52.879511 2.840000 0.000000
89 1 1 55.339023 0.000000 0.000000
90 1 1 54.109267 0.710000 0.000000
91 1 1 54.109267 2.130000 0.000000
92 1 1 55.339023 2.840000 0.000000
93 1 1 57.798535 0.000000 0.000000
94 1 1 56.568779 0.710000 0.000000
95 1 1 56.568779 2.130000 0.000000
96 1 1 57.798535 2.840000 0.000000
97 1 1 60.258048 0.000000 0.000000
98 1 1 59.028292 0.710000 0.000000
99 1 1 59.028292 2.130000 0.000000
100 1 1 60.258048 2.840000 0.000000
101 1 1 62.717560 0.000000 0.000000
102 1 1 61.487804 0.710000 0.000000
103 1 1 61.487804 2.130000 0.000000
104 1 1 62.717560 2.840000 0.000000
105 1 1 65.177072 0.000000 0.000000
106 1 1 63.947316 0.710000 0.000000
107 1 1 63.947316 2.130000 0.000000
108 1 1 65.177072 2.840000 0.000000
109 1 1 67.636584 0.000000 0.000000
110 1 1 66.406828 0.710000 0.000000
111 1 1 66.406828 2.130000 0.000000
112 1 1 67.636584 2.840000 0.000000
113 1 1 70.096096 0.000000 0.000000
114 1 1 68.866340 0.710000 0.000000
115 1 1 68.866340 2.130000 0.000000
116 1 1 70.096096 2.840000 0.000000
117 1 1 72.555608 0.000000 0.000000
118 1 1 71.325852 0.710000 0.000000
119 1 1 71.325852 2.130000 0.000000
120 1 1 72.555608 2.840000 0.000000
121 1 1 75.015120 0.000000 0.000000
122 1 1 73.785364 0.710000 0.000000
123 1 1 73.785364 2.130000 0.000000
124 1 1 75.015120 2.840000 0.000000
125 1 1 77.474633 0.000000 0.000000
126 1 1 76.244877 0.710000 0.000000
127 1 1 76.244877 2.130000 0.000000
128 1 1 77.474633 2.840000 0.000000
129 1 1 79.934145 0.000000 0.000000
130 1 1 78.704389 0.710000 0.000000
131 1 1 78.704389 2.130000 0.000000
132 1 1 79.934145 2.840000 0.000000
133 1 1 82.393657 0.000000 0.000000
134 1 1 81.163901 0.710000 0.000000
135 1 1 81.163901 2.130000 0.000000
136 1 1 82.393657 2.840000 0.000000
137 1 1 84.853169 0.000000 0.000000
138 1 1 83.623413 0.710000 0.000000
139 1 1 83.623413 2.130000 0.000000
140 1 1 84.853169 2.840000 0.000000
141 1 1 87.312681 0.000000 0.000000
142 1 1 86.082925 0.710000 0.000000
143 1 1 86.082925 2.130000 0.000000
144 1 1 87.312681 2.840000 0.000000
145 1 1 89.772193 0.000000 0.000000
146 1 1 88.542437 0.710000 0.000000
147 1 1 88.542437 2.130000 0.000000
148 1 1 89.772193 2.840000 0.000000
149 1 1 92.231706 0.000000 0.000000
150 1 1 91.001949 0.710000 0.000000
151 1 1 91.001949 2.130000 0.000000
152 1 1 92.231706 2.840000 0.000000
153 1 1 94.691218 0.000000 0.000000
154 1 1 93.461462 0.710000 0.000000
155 1 1 93.461462 2.130000 0.000000
156 1 1 94.691218 2.840000 0.000000
157 1 1 97.150730 0.000000 0.000000
158 1 1 95.920974 0.710000 0.000000
159 1 1 95.920974 2.130000 0.000000
160 1 1 97.150730 2.840000 0.000000
161 1 1 99.610242 0.000000 0.000000
162 1 1 98.380486 0.710000 0.000000
163 1 1 98.380486 2.130000 0.000000
164 1 1 99.610242 2.840000 0.000000
165 1 1 102.069754 0.000000 0.000000
166 1 1 100.839998 0.710000 0.000000
167 1 1 100.839998 2.130000 0.000000
168 1 1 102.069754 2.840000 0.000000
169 1 1 104.529266 0.000000 0.000000
170 1 1 103.299510 0.710000 0.000000
171 1 1 103.299510 2.130000 0.000000
172 1 1 104.529266 2.840000 0.000000
173 1 1 106.988778 0.000000 0.000000
174 1 1 105.759022 0.710000 0.000000
175 1 1 105.759022 2.130000 0.000000
176 1 1 106.988778 2.840000 0.000000
177 1 1 109.448291 0.000000 0.000000
178 1 1 108.218534 0.710000 0.000000
179 1 1 108.218534 2.130000 0.000000
180 1 1 109.448291 2.840000 0.000000
181 1 1 111.907803 0.000000 0.000000
182 1 1 110.678047 0.710000 0.000000
183 1 1 110.678047 2.130000 0.000000
184 1 1 111.907803 2.840000 0.000000
185 1 1 114.367315 0.000000 0.000000
186 1 1 113.137559 0.710000 0.000000
187 1 1 113.137559 2.130000 0.000000
188 1 1 114.367315 2.840000 0.000000
189 1 1 116.826827 0.000000 0.000000
190 1 1 115.597071 0.710000 0.000000
191 1 1 115.597071 2.130000 0.000000
192 1 1 116.826827 2.840000 0.000000
193 1 1 119.286339 0.000000 0.000000
194 1 1 118.056583 0.710000 0.000000
195 1 1 118.056583 2.130000 0.000000
196 1 1 119.286339 2.840000 0.000000
197 1 1 121.745851 0.000000 0.000000
198 1 1 120.516095 0.710000 0.000000
199 1 1 120.516095 2.130000 0.000000
200 1 1 121.745851 2.840000 0.000000
201 1 1 124.205363 0.000000 0.000000
202 1 1 122.975607 0.710000 0.000000
203 1 1 122.975607 2.130000 0.000000
204 1 1 124.205363 2.840000 0.000000
205 1 1 126.664876 0.000000 0.000000
206 1 1 125.435119 0.710000 0.000000
207 1 1 125.435119 2.130000 0.000000
208 1 1 126.664876 2.840000 0.000000
209 1 1 129.124388 0.000000 0.000000
210 1 1 127.894632 0.710000 0.000000
211 1 1 127.894632 2.130000 0.000000
212 1 1 129.124388 2.840000 0.000000
213 1 1 131.583900 0.000000 0.000000
214 1 1 130.354144 0.710000 0.000000
215 1 1 130.354144 2.130000 0.000000
216 1 1 131.583900 2.840000 0.000000
217 1 1 134.043412 0.000000 0.000000
218 1 1 132.813656 0.710000 0.000000
219 1 1 132.813656 2.130000 0.000000
220 1 1 134.043412 2.840000 0.000000
221 1 1 136.502924 0.000000 0.000000
222 1 1 135.273168 0.710000 0.000000
223 1 1 135.273168 2.130000 0.000000
224 1 1 136.502924 2.840000 0.000000
225 1 1 138.962436 0.000000 0.000000
226 1 1 137.732680 0.710000 0.000000
227 1 1 137.732680 2.130000 0.000000
228 1 1 138.962436 2.840000 0.000000
229 1 1 141.421948 0.000000 0.000000
230 1 1 140.192192 0.710000 0.000000
231 1 1 140.192192 2.130000 0.000000
232 1 1 141.421948 2.840000 0.000000
233 1 1 143.881461 0.000000 0.000000
234 1 1 142.651705 0.710000 0.000000
235 1 1 142.651705 2.130000 0.000000
236 1 1 143.881461 2.840000 0.000000
237 1 1 146.340973 0.000000 0.000000
238 1 1 145.111217 0.710000 0.000000
239 1 1 145.111217 2.130000 0.000000
240 1 1 146.340973 2.840000 0.000000
241 1 1 148.800485 0.000000 0.000000
242 1 1 147.570729 0.710000 0.000000
243 1 1 147.570729 2.130000 0.000000
244 1 1 148.800485 2.840000 0.000000
245 1 1 151.259997 0.000000 0.000000
246 1 1 150.030241 0.710000 0.000000
247 1 1 150.030241 2.130000 0.000000
248 1 1 151.259997 2.840000 0.000000
249 1 1 153.719509 0.000000 0.000000
250 1 1 152.489753 0.710000 0.000000
251 1 1 152.489753 2.130000 0.000000
252 1 1 153.719509 2.840000 0.000000
253 1 1 156.179021 0.000000 0.000000
254 1 1 154.949265 0.710000 0.000000
255 1 1 154.949265 2.130000 0.000000
256 1 1 156.179021 2.840000 0.000000
257 1 1 158.638533 0.000000 0.000000
258 1 1 157.408777 0.710000 0.000000
259 1 1 157.408777 2.130000 0.000000
260 1 1 158.638533 2.840000 0.000000
261 1 1 161.098046 0.000000 0.000000
262 1 1 159.868290 0.710000 0.000000
263 1 1 159.868290 2.130000 0.000000
264 1 1 161.098046 2.840000 0.000000
265 1 1 163.557558 0.000000 0.000000
266 1 1 162.327802 0.710000 0.000000
267 1 1 162.327802 2.130000 0.000000
268 1 1 163.557558 2.840000 0.000000
269 1 1 166.017070 0.000000 0.000000
270 1 1 164.787314 0.710000 0.000000
271 1 1 164.787314 2.130000 0.000000
272 1 1 166.017070 2.840000 0.000000
273 1 1 168.476582 0.000000 0.000000
274 1 1 167.246826 0.710000 0.000000
275 1 1 167.246826 2.130000 0.000000
276 1 1 168.476582 2.840000 0.000000
277 1 1 170.936094 0.000000 0.000000
278 1 1 169.706338 0.710000 0.000000
279 1 1 169.706338 2.130000 0.000000
280 1 1 170.936094 2.840000 0.000000
281 1 1 173.395606 0.000000 0.000000
282 1 1 172.165850 0.710000 0.000000
283 1 1 172.165850 2.130000 0.000000
284 1 1 173.395606 2.840000 0.000000
285 1 1 175.855119 0.000000 0.000000
286 1 1 174.625362 0.710000 0.000000
287 1 1 174.625362 2.130000 0.000000
288 1 1 175.855119 2.840000 0.000000
289 1 1 178.314631 0.000000 0.000000
290 1 1 177.084875 0.710000 0.000000
291 1 1 177.084875 2.130000 0.000000
292 1 1 178.314631 2.840000 0.000000
293 1 1 180.774143 0.000000 0.000000
294 1 1 179.544387 0.710000 0.000000
295 1 1 179.544387 2.130000 0.000000
296 1 1 180.774143 2.840000 0.000000
297 1 1 183.233655 0.000000 0.000000
298 1 1 182.003899 0.710000 0.000000
299 1 1 182.003899 2.130000 0.000000
300 1 1 183.233655 2.840000 0.000000
301 1 1 185.693167 0.000000 0.000000
302 1 1 184.463411 0.710000 0.000000
303 1 1 184.463411 2.130000 0.000000
304 1 1 185.693167 2.840000 0.000000
305 1 1 188.152679 0.000000 0.000000
306 1 1 186.922923 0.710000 0.000000
307 1 1 186.922923 2.130000 0.000000
308 1 1 188.152679 2.840000 0.000000
309 1 1 190.612191 0.000000 0.000000
310 1 1 189.382435 0.710000 0.000000
311 1 1 189.382435 2.130000 0.000000
312 1 1 190.612191 2.840000 0.000000
313 1 1 193.071704 0.000000 0.000000
314 1 1 191.841947 0.710000 0.000000
315 1 1 191.841947 2.130000 0.000000
316 1 1 193.071704 2.840000 0.000000
317 1 1 195.531216 0.000000 0.000000
318 1 1 194.301460 0.710000 0.000000
319 1 1 194.301460 2.130000 0.000000
320 1 1 195.531216 2.840000 0.000000
321 1 1 197.990728 0.000000 0.000000
322 1 1 196.760972 0.710000 0.000000
323 1 1 196.760972 2.130000 0.000000
324 1 1 197.990728 2.840000 0.000000
325 1 1 200.450240 0.000000 0.000000
326 1 1 199.220484 0.710000 0.000000
327 1 1 199.220484 2.130000 0.000000
328 1 1 200.450240 2.840000 0.000000
329 1 1 202.909752 0.000000 0.000000
330 1 1 201.679996 0.710000 0.000000
331 1 1 201.679996 2.130000 0.000000
332 1 1 202.909752 2.840000 0.000000
333 1 1 205.369264 0.000000 0.000000
334 1 1 204.139508 0.710000 0.000000
335 1 1 204.139508 2.130000 0.000000
336 1 1 205.369264 2.840000 0.000000
337 1 1 207.828776 0.000000 0.000000
338 1 1 206.599020 0.710000 0.000000
339 1 1 206.599020 2.130000 0.000000
340 1 1 207.828776 2.840000 0.000000
341 1 1 210.288289 0.000000 0.000000
342 1 1 209.058532 0.710000 0.000000
343 1 1 209.058532 2.130000 0.000000
344 1 1 210.288289 2.840000 0.000000
345 1 1 212.747801 0.000000 0.000000
346 1 1 211.518045 0.710000 0.000000
347 1 1 211.518045 2.130000 0.000000
348 1 1 212.747801 2.840000 0.000000
349 1 1 215.207313 0.000000 0.000000
350 1 1 213.977557 0.710000 0.000000
351 1 1 213.977557 2.130000 0.000000
352 1 1 215.207313 2.840000 0.000000
353 1 1 217.666825 0.000000 0.000000
354 1 1 216.437069 0.710000 0.000000
355 1 1 216.437069 2.130000 0.000000
356 1 1 217.666825 2.840000 0.000000
357 1 1 220.126337 0.000000 0.000000
358 1 1 218.896581 0.710000 0.000000
359 1 1 218.896581 2.130000 0.000000
360 1 1 220.126337 2.840000 0.000000
361 1 1 222.585849 0.000000 0.000000
362 1 1 221.356093 0.710000 0.000000
363 1 1 221.356093 2.130000 0.000000
364 1 1 222.585849 2.840000 0.000000
365 1 1 225.045361 0.000000 0.000000
366 1 1 223.815605 0.710000 0.000000
367 1 1 223.815605 2.130000 0.000000
368 1 1 225.045361 2.840000 0.000000
369 1 1 227.504874 0.000000 0.000000
370 1 1 226.275118 0.710000 0.000000
371 1 1 226.275118 2.130000 0.000000
372 1 1 227.504874 2.840000 0.000000
373 1 1 229.964386 0.000000 0.000000
374 1 1 228.734630 0.710000 0.000000
375 1 1 228.734630 2.130000 0.000000
376 1 1 229.964386 2.840000 0.000000
377 1 1 232.423898 0.000000 0.000000
378 1 1 231.194142 0.710000 0.000000
379 1 1 231.194142 2.130000 0.000000
380 1 1 232.423898 2.840000 0.000000
381 1 1 234.883410 0.000000 0.000000
382 1 1 233.653654 0.710000 0.000000
383 1 1 233.653654 2.130000 0.000000
384 1 1 234.883410 2.840000 0.000000
385 1 1 237.342922 0.000000 0.000000
386 1 1 236.113166 0.710000 0.000000
387 1 1 236.113166 2.130000 0.000000
388 1 1 237.342922 2.840000 0.000000
389 1 1 239.802434 0.000000 0.000000
390 1 1 238.572678 0.710000 0.000000
391 1 1 238.572678 2.130000 0.000000
392 1 1 239.802434 2.840000 0.000000
393 1 1 242.261946 0.000000 0.000000
394 1 1 241.032190 0.710000 0.000000
395 1 1 241.032190 2.130000 0.000000
396 1 1 242.261946 2.840000 0.000000
397 1 1 244.721459 0.000000 0.000000
398 1 1 243.491703 0.710000 0.000000
399 1 1 243.491703 2.130000 0.000000
400 1 1 244.721459 2.840000 0.000000
401 1 1 247.180971 0.000000 0.000000
402 1 1 245.951215 0.710000 0.000000
403 1 1 245.951215 2.130000 0.000000
404 1 1 247.180971 2.840000 0.000000
405 1 1 249.640483 0.000000 0.000000
406 1 1 248.410727 0.710000 0.000000
407 1 1 248.410727 2.130000 0.000000
408 1 1 249.640483 2.840000 0.000000
409 1 1 252.099995 0.000000 0.000000
410 1 1 250.870239 0.710000 0.000000
411 1 1 250.870239 2.130000 0.000000
412 1 1 252.099995 2.840000 0.000000
413 1 1 254.559507 0.000000 0.000000
414 1 1 253.329751 0.710000 0.000000
415 1 1 253.329751 2.130000 0.000000
416 1 1 254.559507 2.840000 0.000000
417 1 1 257.019019 0.000000 0.000000
418 1 1 255.789263 0.710000 0.000000
419 1 1 255.789263 2.130000 0.000000
420 1 1 257.019019 2.840000 0.000000
421 1 1 259.478532 0.000000 0.000000
422 1 1 258.248775 0.710000 0.000000
423 1 1 258.248775 2.130000 0.000000
424 1 1 259.478532 2.840000 0.000000
425 1 1 261.938044 0.000000 0.000000
426 1 1 260.708288 0.710000 0.000000
427 1 1 260.708288 2.130000 0.000000
428 1 1 261.938044 2.840000 0.000000
429 1 1 264.397556 0.000000 0.000000
430 1 1 263.167800 0.710000 0.000000
431 1 1 263.167800 2.130000 0.000000
432 1 1 264.397556 2.840000 0.000000
433 1 1 266.857068 0.000000 0.000000
434 1 1 265.627312 0.710000 0.000000
435 1 1 265.627312 2.130000 0.000000
436 1 1 266.857068 2.840000 0.000000
437 1 1 269.316580 0.000000 0.000000
438 1 1 268.086824 0.710000 0.000000
439 1 1 268.086824 2.130000 0.000000
440 1 1 269.316580 2.840000 0.000000
441 1 1 271.776092 0.000000 0.000000
442 1 1 270.546336 0.710000 0.000000
443 1 1 270.546336 2.130000 0.000000
444 1 1 271.776092 2.840000 0.000000
445 1 1 274.235604 0.000000 0.000000
446 1 1 273.005848 0.710000 0.000000
447 1 1 273.005848 2.130000 0.000000
448 1 1 274.235604 2.840000 0.000000
449 1 1 276.695117 0.000000 0.000000
450 1 1 275.465360 0.710000 0.000000
451 1 1 275.465360 2.130000 0.000000
452 1 1 276.695117 2.840000 0.000000
453 1 1 279.154629 0.000000 0.000000
454 1 1 277.924873 0.710000 0.000000
455 1 1 277.924873 2.130000 0.000000
456 1 1 279.154629 2.840000 0.000000
457 1 1 281.614141 0.000000 0.000000
458 1 1 280.384385 0.710000 0.000000
459 1 1 280.384385 2.130000 0.000000
460 1 1 281.614141 2.840000 0.000000
461 1 1 284.073653 0.000000 0.000000
462 1 1 282.843897 0.710000 0.000000
463 1 1 282.843897 2.130000 0.000000
464 1 1 284.073653 2.840000 0.000000
465 1 1 286.533165 0.000000 0.000000
466 1 1 285.303409 0.710000 0.000000
467 1 1 285.303409 2.130000 0.000000
468 1 1 286.533165 2.840000 0.000000
469 1 1 288.992677 0.000000 0.000000
470 1 1 287.762921 0.710000 0.000000
471 1 1 287.762921 2.130000 0.000000
472 1 1 288.992677 2.840000 0.000000
473 1 1 291.452189 0.000000 0.000000
474 1 1 290.222433 0.710000 0.000000
475 1 1 290.222433 2.130000 0.000000
476 1 1 291.452189 2.840000 0.000000
477 1 1 293.911702 0.000000 0.000000
478 1 1 292.681945 0.710000 0.000000
479 1 1 292.681945 2.130000 0.000000
480 1 1 293.911702 2.840000 0.000000
481 1 1 296.371214 0.000000 0.000000
482 1 1 295.141458 0.710000 0.000000
483 1 1 295.141458 2.130000 0.000000
484 1 1 296.371214 2.840000 0.000000
485 1 1 298.830726 0.000000 0.000000
486 1 1 297.600970 0.710000 0.000000
487 1 1 297.600970 2.130000 0.000000
488 1 1 298.830726 2.840000 0.000000
489 1 1 301.290238 0.000000 0.000000
490 1 1 300.060482 0.710000 0.000000
491 1 1 300.060482 2.130000 0.000000
492 1 1 301.290238 2.840000 0.000000
493 1 1 303.749750 0.000000 0.000000
494 1 1 302.519994 0.710000 0.000000
495 1 1 302.519994 2.130000 0.000000
496 1 1 303.749750 2.840000 0.000000
497 1 1 306.209262 0.000000 0.000000
498 1 1 304.979506 0.710000 0.000000
499 1 1 304.979506 2.130000 0.000000
500 1 1 306.209262 2.840000 0.000000
501 1 1 308.668774 0.000000 0.000000
502 1 1 307.439018 0.710000 0.000000
503 1 1 307.439018 2.130000 0.000000
504 1 1 308.668774 2.840000 0.000000
505 1 1 311.128287 0.000000 0.000000
506 1 1 309.898531 0.710000 0.000000
507 1 1 309.898531 2.130000 0.000000
508 1 1 311.128287 2.840000 0.000000
509 1 1 313.587799 0.000000 0.000000
510 1 1 312.358043 0.710000 0.000000
511 1 1 312.358043 2.130000 0.000000
512 1 1 313.587799 2.840000 0.000000
513 1 1 316.047311 0.000000 0.000000
514 1 1 314.817555 0.710000 0.000000
515 1 1 314.817555 2.130000 0.000000
516 1 1 316.047311 2.840000 0.000000
517 1 1 318.506823 0.000000 0.000000
518 1 1 317.277067 0.710000 0.000000
519 1 1 317.277067 2.130000 0.000000
520 1 1 318.506823 2.840000 0.000000
521 1 1 320.966335 0.000000 0.000000
522 1 1 319.736579 0.710000 0.000000
523 1 1 319.736579 2.130000 0.000000
524 1 1 320.966335 2.840000 0.000000
525 1 1 323.425847 0.000000 0.000000
526 1 1 322.196091 0.710000 0.000000
527 1 1 322.196091 2.130000 0.000000
528 1 1 323.425847 2.840000 0.000000
529 1 1 325.885359 0.000000 0.000000
530 1 1 324.655603 0.710000 0.000000
531 1 1 324.655603 2.130000 0.000000
532 1 1 325.885359 2.840000 0.000000
533 1 1 328.344872 0.000000 0.000000
534 1 1 327.115116 0.710000 0.000000
535 1 1 327.115116 2.130000 0.000000
536 1 1 328.344872 2.840000 0.000000
537 1 1 330.804384 0.000000 0.000000
538 1 1 329.574628 0.710000 0.000000
539 1 1 329.574628 2.130000 0.000000
540 1 1 330.804384 2.840000 0.000000
541 1 1 333.263896 0.000000 0.000000
542 1 1 332.034140 0.710000 0.000000
543 1 1 332.034140 2.130000 0.000000
544 1 1 333.263896 2.840000 0.000000
545 1 1 335.723408 0.000000 0.000000
546 1 1 334.493652 0.710000 0.000000
547 1 1 334.493652 2.130000 0.000000
548 1 1 335.723408 2.840000 0.000000
549 1 1 338.182920 0.000000 0.000000
550 1 1 336.953164 0.710000 0.000000
551 1 1 336.953164 2.130000 0.000000
552 1 1 338.182920 2.840000 0.000000
553 1 1 340.642432 0.000000 0.000000
554 1 1 339.412676 0.710000 0.000000
555 1 1 339.412676 2.130000 0.000000
556 1 1 340.642432 2.840000 0.000000
557 1 1 343.101945 0.000000 0.000000
558 1 1 341.872188 0.710000 0.000000
559 1 1 341.872188 2.130000 0.000000
560 1 1 343.101945 2.840000 0.000000
561 1 1 345.561457 0.000000 0.000000
562 1 1 344.331701 0.710000 0.000000
563 1 1 344.331701 2.130000 0.000000
564 1 1 345.561457 2.840000 0.000000
565 1 1 348.020969 0.000000 0.000000
566 1 1 346.791213 0.710000 0.000000
567 1 1 346.791213 2.130000 0.000000
568 1 1 348.020969 2.840000 0.000000
569 1 1 350.480481 0.000000 0.000000
570 1 1 349.250725 0.710000 0.000000
571 1 1 349.250725 2.130000 0.000000
572 1 1 350.480481 2.840000 0.000000
573 1 1 352.939993 0.000000 0.000000
574 1 1 351.710237 0.710000 0.000000
575 1 1 351.710237 2.130000 0.000000
576 1 1 352.939993 2.840000 0.000000
577 1 1 355.399505 0.000000 0.000000
578 1 1 354.169749 0.710000 0.000000
579 1 1 354.169749 2.130000 0.000000
580 1 1 355.399505 2.840000 0.000000
581 1 1 357.859017 0.000000 0.000000
582 1 1 356.629261 0.710000 0.000000
583 1 1 356.629261 2.130000 0.000000
584 1 1 357.859017 2.840000 0.000000
585 1 1 360.318530 0.000000 0.000000
586 1 1 359.088773 0.710000 0.000000
587 1 1 359.088773 2.130000 0.000000
588 1 1 360.318530 2.840000 0.000000
589 1 1 362.778042 0.000000 0.000000
590 1 1 361.548286 0.710000 0.000000
591 1 1 361.548286 2.130000 0.000000
592 1 1 362.778042 2.840000 0.000000
593 1 1 365.237554 0.000000 0.000000
594 1 1 364.007798 0.710000 0.000000
595 1 1 364.007798 2.130000 0.000000
596 1 1 365.237554 2.840000 0.000000
597 1 1 367.697066 0.000000 0.000000
598 1 1 366.467310 0.710000 0.000000
599 1 1 366.467310 2.130000 0.000000
600 1 1 367.697066 2.840000 0.000000
601 1 1 370.156578 0.000000 0.000000
602 1 1 368.926822 0.710000 0.000000
603 1 1 368.926822 2.130000 0.000000
604 1 1 370.156578 2.840000 0.000000
605 1 1 372.616090 0.000000 0.000000
606 1 1 371.386334 0.710000 0.000000
607 1 1 371.386334 2.130000 0.000000
608 1 1 372.616090 2.840000 0.000000
609 1 1 375.075602 0.000000 0.000000
610 1 1 373.845846 0.710000 0.000000
611 1 1 373.845846 2.130000 0.000000
612 1 1 375.075602 2.840000 0.000000
613 1 1 377.535115 0.000000 0.000000
614 1 1 376.305358 0.710000 0.000000
615 1 1 376.305358 2.130000 0.000000
616 1 1 377.535115 2.840000 0.000000
617 1 1 379.994627 0.000000 0.000000
618 1 1 378.764871 0.710000 0.000000
619 1 1 378.764871 2.130000 0.000000
620 1 1 379.994627 2.840000 0.000000
621 1 1 382.454139 0.000000 0.000000
622 1 1 381.224383 0.710000 0.000000
623 1 1 381.224383 2.130000 0.000000
624 1 1 382.454139 2.840000 0.000000
625 1 1 384.913651 0.000000 0.000000
626 1 1 383.683895 0.710000 0.000000
627 1 1 383.683895 2.130000 0.000000
628 1 1 384.913651 2.840000 0.000000
629 1 1 387.373163 0.000000 0.000000
630 1 1 386.143407 0.710000 0.000000
631 1 1 386.143407 2.130000 0.000000
632 1 1 387.373163 2.840000 0.000000
633 1 1 389.832675 0.000000 0.000000
634 1 1 388.602919 0.710000 0.000000
635 1 1 388.602919 2.130000 0.000000
636 1 1 389.832675 2.840000 0.000000
637 1 1 392.292187 0.000000 0.000000
638 1 1 391.062431 0.710000 0.000000
639 1 1 391.062431 2.130000 0.000000
640 1 1 392.292187 2.840000 0.000000
641 1 1 394.751700 0.000000 0.000000
642 1 1 393.521944 0.710000 0.000000
643 1 1 393.521944 2.130000 0.000000
644 1 1 394.751700 2.840000 0.000000
645 1 1 397.211212 0.000000 0.000000
646 1 1 395.981456 0.710000 0.000000
647 1 1 395.981456 2.130000 0.000000
648 1 1 397.211212 2.840000 0.000000
649 1 1 399.670724 0.000000 0.000000
650 1 1 398.440968 0.710000 0.000000
651 1 1 398.440968 2.130000 0.000000
652 1 1 399.670724 2.840000 0.000000
653 1 1 402.130236 0.000000 0.000000
654 1 1 400.900480 0.710000 0.000000
655 1 1 400.900480 2.130000 0.000000
656 1 1 402.130236 2.840000 0.000000
657 1 1 404.589748 0.000000 0.000000
658 1 1 403.359992 0.710000 0.000000
659 1 1 403.359992 2.130000 0.000000
660 1 1 404.589748 2.840000 0.000000
661 1 1 407.049260 0.000000 0.000000
662 1 1 405.819504 0.710000 0.000000
663 1 1 405.819504 2.130000 0.000000
664 1 1 407.049260 2.840000 0.000000
665 1 1 409.508772 0.000000 0.000000
666 1 1 408.279016 0.710000 0.000000
667 1 1 408.279016 2.130000 0.000000
668 1 1 409.508772 2.840000 0.000000
669 1 1 411.968285 0.000000 0.000000
670 1 1 410.738529 0.710000 0.000000
671 1 1 410.738529 2.130000 0.000000
672 1 1 411.968285 2.840000 0.000000
673 1 1 414.427797 0.000000 0.000000
674 1 1 413.198041 0.710000 0.000000
675 1 1 413.198041 2.130000 0.000000
676 1 1 414.427797 2.840000 0.000000
677 1 1 416.887309 0.000000 0.000000
678 1 1 415.657553 0.710000 0.000000
679 1 1 415.657553 2.130000 0.000000
680 1 1 416.887309 2.840000 0.000000
681 1 1 419.346821 0.000000 0.000000
682 1 1 418.117065 0.710000 0.000000
683 1 1 418.117065 2.130000 0.000000
684 1 1 419.346821 2.840000 0.000000
685 1 1 421.806333 0.000000 0.000000
686 1 1 420.576577 0.710000 0.000000
687 1 1 420.576577 2.130000 0.000000
688 1 1 421.806333 2.840000 0.000000
689 1 1 424.265845 0.000000 0.000000
690 1 1 423.036089 0.710000 0.000000
691 1 1 423.036089 2.130000 0.000000
692 1 1 424.265845 2.840000 0.000000
693 1 1 426.725358 0.000000 0.000000
694 1 1 425.495601 0.710000 0.000000
695 1 1 425.495601 2.130000 0.000000
696 1 1 426.725358 2.840000 0.000000
697 1 1 429.184870 0.000000 0.000000
698 1 1 427.955114 0.710000 0.000000
699 1 1 427.955114 2.130000 0.000000
700 1 1 429.184870 2.840000 0.000000
701 1 1 431.644382 0.000000 0.000000
702 1 1 430.414626 0.710000 0.000000
703 1 1 430.414626 2.130000 0.000000
704 1 1 431.644382 2.840000 0.000000
705 1 1 434.103894 0.000000 0.000000
706 1 1 432.874138 0.710000 0.000000
707 1 1 432.874138 2.130000 0.000000
708 1 1 434.103894 2.840000 0.000000
709 1 1 436.563406 0.000000 0.000000
710 1 1 435.333650 0.710000 0.000000
711 1 1 435.333650 2.130000 0.000000
712 1 1 436.563406 2.840000 0.000000
713 1 1 439.022918 0.000000 0.000000
714 1 1 437.793162 0.710000 0.000000
715 1 1 437.793162 2.130000 0.000000
716 1 1 439.022918 2.840000 0.000000
717 1 1 441.482430 0.000000 0.000000
718 1 1 440.252674 0.710000 0.000000
719 1 1 440.252674 2.130000 0.000000
720 1 1 441.482430 2.840000 0.000000
721 1 1 443.941943 0.000000 0.000000
722 1 1 442.712186 0.710000 0.000000
723 1 1 442.712186 2.130000 0.000000
724 1 1 443.941943 2.840000 0.000000
725 1 1 446.401455 0.000000 0.000000
726 1 1 445.171699 0.710000 0.000000
727 1 1 445.171699 2.130000 0.000000
728 1 1 446.401455 2.840000 0.000000
729 1 1 448.860967 0.000000 0.000000
730 1 1 447.631211 0.710000 0.000000
731 1 1 447.631211 2.130000 0.000000
732 1 1 448.860967 2.840000 0.000000
733 1 1 451.320479 0.000000 0.000000
734 1 1 450.090723 0.710000 0.000000
735 1 1 450.090723 2.130000 0.000000
736 1 1 451.320479 2.840000 0.000000
737 1 1 453.779991 0.000000 0.000000
738 1 1 452.550235 0.710000 0.000000
739 1 1 452.550235 2.130000 0.000000
740 1 1 453.779991 2.840000 0.000000
741 1 1 456.239503 0.000000 0.000000
742 1 1 455.009747 0.710000 0.000000
743 1 1 455.009747 2.130000 0.000000
744 1 1 456.239503 2.840000 0.000000
745 1 1 458.699015 0.000000 0.000000
746 1 1 457.469259 0.710000 0.000000
747 1 1 457.469259 2.130000 0.000000
748 1 1 458.699015 2.840000 0.000000
749 1 1 461.158528 0.000000 0.000000
750 1 1 459.928771 0.710000 0.000000
751 1 1 459.928771 2.130000 0.000000
752 1 1 461.158528 2.840000 0.000000
753 1 1 463.618040 0.000000 0.000000
754 1 1 462.388284 0.710000 0.000000
755 1 1 462.388284 2.130000 0.000000
756 1 1 463.618040 2.840000 0.000000
757 1 1 466.077552 0.000000 0.000000
758 1 1 464.847796 0.710000 0.000000
759 1 1 464.847796 2.130000 0.000000
760 1 1 466.077552 2.840000 0.000000
761 1 1 468.537064 0.000000 0.000000
762 1 1 467.307308 0.710000 0.000000
763 1 1 467.307308 2.130000 0.000000
764 1 1 468.537064 2.840000 0.000000
765 1 1 470.996576 0.000000 0.000000
766 1 1 469.766820 0.710000 0.000000
767 1 1 469.766820 2.130000 0.000000
768 1 1 470.996576 2.840000 0.000000
769 1 1 473.456088 0.000000 0.000000
770 1 1 472.226332 0.710000 0.000000
771 1 1 472.226332 2.130000 0.000000
772 1 1 473.456088 2.840000 0.000000
773 1 1 475.915600 0.000000 0.000000
774 1 1 474.685844 0.710000 0.000000
775 1 1 474.685844 2.130000 0.000000
776 1 1 475.915600 2.840000 0.000000
777 1 1 478.375113 0.000000 0.000000
778 1 1 477.145357 0.710000 0.000000
779 1 1 477.145357 2.130000 0.000000
780 1 1 478.375113 2.840000 0.000000
781 1 1 480.834625 0.000000 0.000000
782 1 1 479.604869 0.710000 0.000000
783 1 1 479.604869 2.130000 0.000000
784 1 1 480.834625 2.840000 0.000000
785 1 1 483.294137 0.000000 0.000000
786 1 1 482.064381 0.710000 0.000000
787 1 1 482.064381 2.130000 0.000000
788 1 1 483.294137 2.840000 0.000000
789 1 1 485.753649 0.000000 0.000000
790 1 1 484.523893 0.710000 0.000000
791 1 1 484.523893 2.130000 0.000000
792 1 1 485.753649 2.840000 0.000000
793 1 1 488.213161 0.000000 0.000000
794 1 1 486.983405 0.710000 0.000000
795 1 1 486.983405 2.130000 0.000000
796 1 1 488.213161 2.840000 0.000000
797 1 1 490.672673 0.000000 0.000000
798 1 1 489.442917 0.710000 0.000000
799 1 1 489.442917 2.130000 0.000000
800 1 1 490.672673 2.840000 0.000000
801 1 1 1.229756 4.260000 0.000000
802 1 1 0.000000 4.970000 0.000000
803 1 1 0.000000 6.390000 0.000000
804 1 1 1.229756 7.100000 0.000000
805 1 1 3.689268 4.260000 0.000000
806 1 1 2.459512 4.970000 0.000000
807 1 1 2.459512 6.390000 0.000000
808 1 1 3.689268 7.100000 0.000000
809 1 1 6.148780 4.260000 0.000000
810 1 1 4.919024 4.970000 0.000000
811 1 1 4.919024 6.390000 0.000000
812 1 1 6.148780 7.100000 0.000000
813 1 1 8.608293 4.260000 0.000000