ITEM: TIMESTEP
0
ITEM: NUMBER OF ATOMS
200     
ITEM: BOX BOUNDS pp pp pp
0.000000000      10.0
0.000000000      20.0
0.000000000      100.0
ITEM: ATOMS id type xu yu zu
1	1	0	0	15
2	1	1	0	15
3	1	2	0	15
4	1	3	0	15
5	1	4	0	15
6	1	5	0	15
7	1	6	0	15
8	1	7	0	15
9	1	8	0	15
10	1	9	0	15
11	1	0	1	15
12	1	1	1	15
13	1	2	1	15
14	1	3	1	15
15	1	4	1	15
16	1	5	1	15
17	1	6	1	15
18	1	7	1	15
19	1	8	1	15
20	1	9	1	15
21	1	0	2	15
22	1	1	2	15
23	1	2	2	15
24	1	3	2	15
25	1	4	2	15
26	1	5	2	15
27	1	6	2	15
28	1	7	2	15
29	1	8	2	15
30	1	9	2	15
31	1	0	3	15
32	1	1	3	15
33	1	2	3	15
34	1	3	3	15
35	1	4	3	15
36	1	5	3	15
37	1	6	3	15
38	1	7	3	15
39	1	8	3	15
40	1	9	3	15
41	1	0	4	15
42	1	1	4	15
43	1	2	4	15
44	1	3	4	15
45	1	4	4	15
46	1	5	4	15
47	1	6	4	15
48	1	7	4	15
49	1	8	4	15
50	1	9	4	15
51	1	0	5	15
52	1	1	5	15
53	1	2	5	15
54	1	3	5	15
55	1	4	5	15
56	1	5	5	15
57	1	6	5	15
58	1	7	5	15
59	1	8	5	15
60	1	9	5	15
61	1	0	6	15
62	1	1	6	15
63	1	2	6	15
64	1	3	6	15
65	1	4	6	15
66	1	5	6	15
67	1	6	6	15
68	1	7	6	15
69	1	8	6	15
70	1	9	6	15
71	1	0	7	15
72	1	1	7	15
73	1	2	7	15
74	1	3	7	15
75	1	4	7	15
76	1	5	7	15
77	1	6	7	15
78	1	7	7	15
79	1	8	7	15
80	1	9	7	15
81	1	0	8	15
82	1	1	8	15
83	1	2	8	15
84	1	3	8	15
85	1	4	8	15
86	1	5	8	15
87	1	6	8	15
88	1	7	8	15
89	1	8	8	15
90	1	9	8	15
91	1	0	9	15
92	1	1	9	15
93	1	2	9	15
94	1	3	9	15
95	1	4	9	15
96	1	5	9	15
97	1	6	9	15
98	1	7	9	15
99	1	8	9	15
100	1	9	9	15
101	1	0	10	15
102	1	1	10	15
103	1	2	10	15
104	1	3	10	15
105	1	4	10	15
106	1	5	10	15
107	1	6	10	15
108	1	7	10	15
109	1	8	10	15
110	1	9	10	15
111	1	0	11	15
112	1	1	11	15
113	1	2	11	15
114	1	3	11	15
115	1	4	11	15
116	1	5	11	15
117	1	6	11	15
118	1	7	11	15
119	1	8	11	15
120	1	9	11	15
121	1	0	12	15
122	1	1	12	15
123	1	2	12	15
124	1	3	12	15
125	1	4	12	15
126	1	5	12	15
127	1	6	12	15
128	1	7	12	15
129	1	8	12	15
130	1	9	12	15
131	1	0	13	15
132	1	1	13	15
133	1	2	13	15
134	1	3	13	15
135	1	4	13	15
136	1	5	13	15
137	1	6	13	15
138	1	7	13	15
139	1	8	13	15
140	1	9	13	15
141	1	0	14	15
142	1	1	14	15
143	1	2	14	15
144	1	3	14	15
145	1	4	14	15
146	1	5	14	15
147	1	6	14	15
148	1	7	14	15
149	1	8	14	15
150	1	9	14	15
151	1	0	15	15
152	1	1	15	15
153	1	2	15	15
154	1	3	15	15
155	1	4	15	15
156	1	5	15	15
157	1	6	15	15
158	1	7	15	15
159	1	8	15	15
160	1	9	15	15
161	1	0	16	15
162	1	1	16	15
163	1	2	16	15
164	1	3	16	15
165	1	4	16	15
166	1	5	16	15
167	1	6	16	15
168	1	7	16	15
169	1	8	16	15
170	1	9	16	15
171	1	0	17	15
172	1	1	17	15
173	1	2	17	15
174	1	3	17	15
175	1	4	17	15
176	1	5	17	15
177	1	6	17	15
178	1	7	17	15
179	1	8	17	15
180	1	9	17	15
181	1	0	18	15
182	1	1	18	15
183	1	2	18	15
184	1	3	18	15
185	1	4	18	15
186	1	5	18	15
187	1	6	18	15
188	1	7	18	15
189	1	8	18	15
190	1	9	18	15
191	1	0	19	15
192	1	1	19	15
193	1	2	19	15
194	1	3	19	15
195	1	4	19	15
196	1	5	19	15
197	1	6	19	15
198	1	7	19	15
199	1	8	19	15
200	1	9	19	15

