ITEM: TIMESTEP
0
ITEM: NUMBER OF ATOMS
3200
ITEM: BOX BOUNDS pp pp pp
0.000000 491.902429
0.000000 17.040000
0.000000 200.000000
ITEM: ATOMS id type xu yu zu
1 1 1.229756 0.000000 2.712000
2 1 0.000000 0.701917 2.619591
3 1 0.000000 1.917674 1.917674
4 1 1.229756 2.348661 1.356000
5 1 3.689268 0.000000 2.712000
6 1 2.459512 0.701917 2.619591
7 1 2.459512 1.917674 1.917674
8 1 3.689268 2.348661 1.356000
9 1 6.148780 0.000000 2.712000
10 1 4.919024 0.701917 2.619591
11 1 4.919024 1.917674 1.917674
12 1 6.148780 2.348661 1.356000
13 1 8.608293 0.000000 2.712000
14 1 7.378536 0.701917 2.619591
15 1 7.378536 1.917674 1.917674
16 1 8.608293 2.348661 1.356000
17 1 11.067805 0.000000 2.712000
18 1 9.838049 0.701917 2.619591
19 1 9.838049 1.917674 1.917674
20 1 11.067805 2.348661 1.356000
21 1 13.527317 0.000000 2.712000
22 1 12.297561 0.701917 2.619591
23 1 12.297561 1.917674 1.917674
24 1 13.527317 2.348661 1.356000
25 1 15.986829 0.000000 2.712000
26 1 14.757073 0.701917 2.619591
27 1 14.757073 1.917674 1.917674
28 1 15.986829 2.348661 1.356000
29 1 18.446341 0.000000 2.712000
30 1 17.216585 0.701917 2.619591
31 1 17.216585 1.917674 1.917674
32 1 18.446341 2.348661 1.356000
33 1 20.905853 0.000000 2.712000
34 1 19.676097 0.701917 2.619591
35 1 19.676097 1.917674 1.917674
36 1 20.905853 2.348661 1.356000
37 1 23.365365 0.000000 2.712000
38 1 22.135609 0.701917 2.619591
39 1 22.135609 1.917674 1.917674
40 1 23.365365 2.348661 1.356000
41 1 25.824878 0.000000 2.712000
42 1 24.595121 0.701917 2.619591
43 1 24.595121 1.917674 1.917674
44 1 25.824878 2.348661 1.356000
45 1 28.284390 0.000000 2.712000
46 1 27.054634 0.701917 2.619591
47 1 27.054634 1.917674 1.917674
48 1 28.284390 2.348661 1.356000
49 1 30.743902 0.000000 2.712000
50 1 29.514146 0.701917 2.619591
51 1 29.514146 1.917674 1.917674
52 1 30.743902 2.348661 1.356000
53 1 33.203414 0.000000 2.712000
54 1 31.973658 0.701917 2.619591
55 1 31.973658 1.917674 1.917674
56 1 33.203414 2.348661 1.356000
57 1 35.662926 0.000000 2.712000
58 1 34.433170 0.701917 2.619591
59 1 34.433170 1.917674 1.917674
60 1 35.662926 2.348661 1.356000
61 1 38.122438 0.000000 2.712000
62 1 36.892682 0.701917 2.619591
63 1 36.892682 1.917674 1.917674
64 1 38.122438 2.348661 1.356000
65 1 40.581950 0.000000 2.712000
66 1 39.352194 0.701917 2.619591
67 1 39.352194 1.917674 1.917674
68 1 40.581950 2.348661 1.356000
69 1 43.041463 0.000000 2.712000
70 1 41.811706 0.701917 2.619591
71 1 41.811706 1.917674 1.917674
72 1 43.041463 2.348661 1.356000
73 1 45.500975 0.000000 2.712000
74 1 44.271219 0.701917 2.619591
75 1 44.271219 1.917674 1.917674
76 1 45.500975 2.348661 1.356000
77 1 47.960487 0.000000 2.712000
78 1 46.730731 0.701917 2.619591
79 1 46.730731 1.917674 1.917674
80 1 47.960487 2.348661 1.356000
81 1 50.419999 0.000000 2.712000
82 1 49.190243 0.701917 2.619591
83 1 49.190243 1.917674 1.917674
84 1 50.419999 2.348661 1.356000
85 1 52.879511 0.000000 2.712000
86 1 51.649755 0.701917 2.619591
87 1 51.649755 1.917674 1.917674
88 1 52.879511 2.348661 1.356000
89 1 55.339023 0.000000 2.712000
90 1 54.109267 0.701917 2.619591
91 1 54.109267 1.917674 1.917674
92 1 55.339023 2.348661 1.356000
93 1 57.798535 0.000000 2.712000
94 1 56.568779 0.701917 2.619591
95 1 56.568779 1.917674 1.917674
96 1 57.798535 2.348661 1.356000
97 1 60.258048 0.000000 2.712000
98 1 59.028292 0.701917 2.619591
99 1 59.028292 1.917674 1.917674
100 1 60.258048 2.348661 1.356000
101 1 62.717560 0.000000 2.712000
102 1 61.487804 0.701917 2.619591
103 1 61.487804 1.917674 1.917674
104 1 62.717560 2.348661 1.356000
105 1 65.177072 0.000000 2.712000
106 1 63.947316 0.701917 2.619591
107 1 63.947316 1.917674 1.917674
108 1 65.177072 2.348661 1.356000
109 1 67.636584 0.000000 2.712000
110 1 66.406828 0.701917 2.619591
111 1 66.406828 1.917674 1.917674
112 1 67.636584 2.348661 1.356000
113 1 70.096096 0.000000 2.712000
114 1 68.866340 0.701917 2.619591
115 1 68.866340 1.917674 1.917674
116 1 70.096096 2.348661 1.356000
117 1 72.555608 0.000000 2.712000
118 1 71.325852 0.701917 2.619591
119 1 71.325852 1.917674 1.917674
120 1 72.555608 2.348661 1.356000
121 1 75.015120 0.000000 2.712000
122 1 73.785364 0.701917 2.619591
123 1 73.785364 1.917674 1.917674
124 1 75.015120 2.348661 1.356000
125 1 77.474633 0.000000 2.712000
126 1 76.244877 0.701917 2.619591
127 1 76.244877 1.917674 1.917674
128 1 77.474633 2.348661 1.356000
129 1 79.934145 0.000000 2.712000
130 1 78.704389 0.701917 2.619591
131 1 78.704389 1.917674 1.917674
132 1 79.934145 2.348661 1.356000
133 1 82.393657 0.000000 2.712000
134 1 81.163901 0.701917 2.619591
135 1 81.163901 1.917674 1.917674
136 1 82.393657 2.348661 1.356000
137 1 84.853169 0.000000 2.712000
138 1 83.623413 0.701917 2.619591
139 1 83.623413 1.917674 1.917674
140 1 84.853169 2.348661 1.356000
141 1 87.312681 0.000000 2.712000
142 1 86.082925 0.701917 2.619591
143 1 86.082925 1.917674 1.917674
144 1 87.312681 2.348661 1.356000
145 1 89.772193 0.000000 2.712000
146 1 88.542437 0.701917 2.619591
147 1 88.542437 1.917674 1.917674
148 1 89.772193 2.348661 1.356000
149 1 92.231706 0.000000 2.712000
150 1 91.001949 0.701917 2.619591
151 1 91.001949 1.917674 1.917674
152 1 92.231706 2.348661 1.356000
153 1 94.691218 0.000000 2.712000
154 1 93.461462 0.701917 2.619591
155 1 93.461462 1.917674 1.917674
156 1 94.691218 2.348661 1.356000
157 1 97.150730 0.000000 2.712000
158 1 95.920974 0.701917 2.619591
159 1 95.920974 1.917674 1.917674
160 1 97.150730 2.348661 1.356000
161 1 99.610242 0.000000 2.712000
162 1 98.380486 0.701917 2.619591
163 1 98.380486 1.917674 1.917674
164 1 99.610242 2.348661 1.356000
165 1 102.069754 0.000000 2.712000
166 1 100.839998 0.701917 2.619591
167 1 100.839998 1.917674 1.917674
168 1 102.069754 2.348661 1.356000
169 1 104.529266 0.000000 2.712000
170 1 103.299510 0.701917 2.619591
171 1 103.299510 1.917674 1.917674
172 1 104.529266 2.348661 1.356000
173 1 106.988778 0.000000 2.712000
174 1 105.759022 0.701917 2.619591
175 1 105.759022 1.917674 1.917674
176 1 106.988778 2.348661 1.356000
177 1 109.448291 0.000000 2.712000
178 1 108.218534 0.701917 2.619591
179 1 108.218534 1.917674 1.917674
180 1 109.448291 2.348661 1.356000
181 1 111.907803 0.000000 2.712000
182 1 110.678047 0.701917 2.619591
183 1 110.678047 1.917674 1.917674
184 1 111.907803 2.348661 1.356000
185 1 114.367315 0.000000 2.712000
186 1 113.137559 0.701917 2.619591
187 1 113.137559 1.917674 1.917674
188 1 114.367315 2.348661 1.356000
189 1 116.826827 0.000000 2.712000
190 1 115.597071 0.701917 2.619591
191 1 115.597071 1.917674 1.917674
192 1 116.826827 2.348661 1.356000
193 1 119.286339 0.000000 2.712000
194 1 118.056583 0.701917 2.619591
195 1 118.056583 1.917674 1.917674
196 1 119.286339 2.348661 1.356000
197 1 121.745851 0.000000 2.712000
198 1 120.516095 0.701917 2.619591
199 1 120.516095 1.917674 1.917674
200 1 121.745851 2.348661 1.356000
201 1 124.205363 0.000000 2.712000
202 1 122.975607 0.701917 2.619591
203 1 122.975607 1.917674 1.917674
204 1 124.205363 2.348661 1.356000
205 1 126.664876 0.000000 2.712000
206 1 125.435119 0.701917 2.619591
207 1 125.435119 1.917674 1.917674
208 1 126.664876 2.348661 1.356000
209 1 129.124388 0.000000 2.712000
210 1 127.894632 0.701917 2.619591
211 1 127.894632 1.917674 1.917674
212 1 129.124388 2.348661 1.356000
213 1 131.583900 0.000000 2.712000
214 1 130.354144 0.701917 2.619591
215 1 130.354144 1.917674 1.917674
216 1 131.583900 2.348661 1.356000
217 1 134.043412 0.000000 2.712000
218 1 132.813656 0.701917 2.619591
219 1 132.813656 1.917674 1.917674
220 1 134.043412 2.348661 1.356000
221 1 136.502924 0.000000 2.712000
222 1 135.273168 0.701917 2.619591
223 1 135.273168 1.917674 1.917674
224 1 136.502924 2.348661 1.356000
225 1 138.962436 0.000000 2.712000
226 1 137.732680 0.701917 2.619591
227 1 137.732680 1.917674 1.917674
228 1 138.962436 2.348661 1.356000
229 1 141.421948 0.000000 2.712000
230 1 140.192192 0.701917 2.619591
231 1 140.192192 1.917674 1.917674
232 1 141.421948 2.348661 1.356000
233 1 143.881461 0.000000 2.712000
234 1 142.651705 0.701917 2.619591
235 1 142.651705 1.917674 1.917674
236 1 143.881461 2.348661 1.356000
237 1 146.340973 0.000000 2.712000
238 1 145.111217 0.701917 2.619591
239 1 145.111217 1.917674 1.917674
240 1 146.340973 2.348661 1.356000
241 1 148.800485 0.000000 2.712000
242 1 147.570729 0.701917 2.619591
243 1 147.570729 1.917674 1.917674
244 1 148.800485 2.348661 1.356000
245 1 151.259997 0.000000 2.712000
246 1 150.030241 0.701917 2.619591
247 1 150.030241 1.917674 1.917674
248 1 151.259997 2.348661 1.356000
249 1 153.719509 0.000000 2.712000
250 1 152.489753 0.701917 2.619591
251 1 152.489753 1.917674 1.917674
252 1 153.719509 2.348661 1.356000
253 1 156.179021 0.000000 2.712000
254 1 154.949265 0.701917 2.619591
255 1 154.949265 1.917674 1.917674
256 1 156.179021 2.348661 1.356000
257 1 158.638533 0.000000 2.712000
258 1 157.408777 0.701917 2.619591
259 1 157.408777 1.917674 1.917674
260 1 158.638533 2.348661 1.356000
261 1 161.098046 0.000000 2.712000
262 1 159.868290 0.701917 2.619591
263 1 159.868290 1.917674 1.917674
264 1 161.098046 2.348661 1.356000
265 1 163.557558 0.000000 2.712000
266 1 162.327802 0.701917 2.619591
267 1 162.327802 1.917674 1.917674
268 1 163.557558 2.348661 1.356000
269 1 166.017070 0.000000 2.712000
270 1 164.787314 0.701917 2.619591
271 1 164.787314 1.917674 1.917674
272 1 166.017070 2.348661 1.356000
273 1 168.476582 0.000000 2.712000
274 1 167.246826 0.701917 2.619591
275 1 167.246826 1.917674 1.917674
276 1 168.476582 2.348661 1.356000
277 1 170.936094 0.000000 2.712000
278 1 169.706338 0.701917 2.619591
279 1 169.706338 1.917674 1.917674
280 1 170.936094 2.348661 1.356000
281 1 173.395606 0.000000 2.712000
282 1 172.165850 0.701917 2.619591
283 1 172.165850 1.917674 1.917674
284 1 173.395606 2.348661 1.356000
285 1 175.855119 0.000000 2.712000
286 1 174.625362 0.701917 2.619591
287 1 174.625362 1.917674 1.917674
288 1 175.855119 2.348661 1.356000
289 1 178.314631 0.000000 2.712000
290 1 177.084875 0.701917 2.619591
291 1 177.084875 1.917674 1.917674
292 1 178.314631 2.348661 1.356000
293 1 180.774143 0.000000 2.712000
294 1 179.544387 0.701917 2.619591
295 1 179.544387 1.917674 1.917674
296 1 180.774143 2.348661 1.356000
297 1 183.233655 0.000000 2.712000
298 1 182.003899 0.701917 2.619591
299 1 182.003899 1.917674 1.917674
300 1 183.233655 2.348661 1.356000
301 1 185.693167 0.000000 2.712000
302 1 184.463411 0.701917 2.619591
303 1 184.463411 1.917674 1.917674
304 1 185.693167 2.348661 1.356000
305 1 188.152679 0.000000 2.712000
306 1 186.922923 0.701917 2.619591
307 1 186.922923 1.917674 1.917674
308 1 188.152679 2.348661 1.356000
309 1 190.612191 0.000000 2.712000
310 1 189.382435 0.701917 2.619591
311 1 189.382435 1.917674 1.917674
312 1 190.612191 2.348661 1.356000
313 1 193.071704 0.000000 2.712000
314 1 191.841947 0.701917 2.619591
315 1 191.841947 1.917674 1.917674
316 1 193.071704 2.348661 1.356000
317 1 195.531216 0.000000 2.712000
318 1 194.301460 0.701917 2.619591
319 1 194.301460 1.917674 1.917674
320 1 195.531216 2.348661 1.356000
321 1 197.990728 0.000000 2.712000
322 1 196.760972 0.701917 2.619591
323 1 196.760972 1.917674 1.917674
324 1 197.990728 2.348661 1.356000
325 1 200.450240 0.000000 2.712000
326 1 199.220484 0.701917 2.619591
327 1 199.220484 1.917674 1.917674
328 1 200.450240 2.348661 1.356000
329 1 202.909752 0.000000 2.712000
330 1 201.679996 0.701917 2.619591
331 1 201.679996 1.917674 1.917674
332 1 202.909752 2.348661 1.356000
333 1 205.369264 0.000000 2.712000
334 1 204.139508 0.701917 2.619591
335 1 204.139508 1.917674 1.917674
336 1 205.369264 2.348661 1.356000
337 1 207.828776 0.000000 2.712000
338 1 206.599020 0.701917 2.619591
339 1 206.599020 1.917674 1.917674
340 1 207.828776 2.348661 1.356000
341 1 210.288289 0.000000 2.712000
342 1 209.058532 0.701917 2.619591
343 1 209.058532 1.917674 1.917674
344 1 210.288289 2.348661 1.356000
345 1 212.747801 0.000000 2.712000
346 1 211.518045 0.701917 2.619591
347 1 211.518045 1.917674 1.917674
348 1 212.747801 2.348661 1.356000
349 1 215.207313 0.000000 2.712000
350 1 213.977557 0.701917 2.619591
351 1 213.977557 1.917674 1.917674
352 1 215.207313 2.348661 1.356000
353 1 217.666825 0.000000 2.712000
354 1 216.437069 0.701917 2.619591
355 1 216.437069 1.917674 1.917674
356 1 217.666825 2.348661 1.356000
357 1 220.126337 0.000000 2.712000
358 1 218.896581 0.701917 2.619591
359 1 218.896581 1.917674 1.917674
360 1 220.126337 2.348661 1.356000
361 1 222.585849 0.000000 2.712000
362 1 221.356093 0.701917 2.619591
363 1 221.356093 1.917674 1.917674
364 1 222.585849 2.348661 1.356000
365 1 225.045361 0.000000 2.712000
366 1 223.815605 0.701917 2.619591
367 1 223.815605 1.917674 1.917674
368 1 225.045361 2.348661 1.356000
369 1 227.504874 0.000000 2.712000
370 1 226.275118 0.701917 2.619591
371 1 226.275118 1.917674 1.917674
372 1 227.504874 2.348661 1.356000
373 1 229.964386 0.000000 2.712000
374 1 228.734630 0.701917 2.619591
375 1 228.734630 1.917674 1.917674
376 1 229.964386 2.348661 1.356000
377 1 232.423898 0.000000 2.712000
378 1 231.194142 0.701917 2.619591
379 1 231.194142 1.917674 1.917674
380 1 232.423898 2.348661 1.356000
381 1 234.883410 0.000000 2.712000
382 1 233.653654 0.701917 2.619591
383 1 233.653654 1.917674 1.917674
384 1 234.883410 2.348661 1.356000
385 1 237.342922 0.000000 2.712000
386 1 236.113166 0.701917 2.619591
387 1 236.113166 1.917674 1.917674
388 1 237.342922 2.348661 1.356000
389 1 239.802434 0.000000 2.712000
390 1 238.572678 0.701917 2.619591
391 1 238.572678 1.917674 1.917674
392 1 239.802434 2.348661 1.356000
393 1 242.261946 0.000000 2.712000
394 1 241.032190 0.701917 2.619591
395 1 241.032190 1.917674 1.917674
396 1 242.261946 2.348661 1.356000
397 1 244.721459 0.000000 2.712000
398 1 243.491703 0.701917 2.619591
399 1 243.491703 1.917674 1.917674
400 1 244.721459 2.348661 1.356000
401 1 247.180971 0.000000 2.712000
402 1 245.951215 0.701917 2.619591
403 1 245.951215 1.917674 1.917674
404 1 247.180971 2.348661 1.356000
405 1 249.640483 0.000000 2.712000
406 1 248.410727 0.701917 2.619591
407 1 248.410727 1.917674 1.917674
408 1 249.640483 2.348661 1.356000
409 1 252.099995 0.000000 2.712000
410 1 250.870239 0.701917 2.619591
411 1 250.870239 1.917674 1.917674
412 1 252.099995 2.348661 1.356000
413 1 254.559507 0.000000 2.712000
414 1 253.329751 0.701917 2.619591
415 1 253.329751 1.917674 1.917674
416 1 254.559507 2.348661 1.356000
417 1 257.019019 0.000000 2.712000
418 1 255.789263 0.701917 2.619591
419 1 255.789263 1.917674 1.917674
420 1 257.019019 2.348661 1.356000
421 1 259.478532 0.000000 2.712000
422 1 258.248775 0.701917 2.619591
423 1 258.248775 1.917674 1.917674
424 1 259.478532 2.348661 1.356000
425 1 261.938044 0.000000 2.712000
426 1 260.708288 0.701917 2.619591
427 1 260.708288 1.917674 1.917674
428 1 261.938044 2.348661 1.356000
429 1 264.397556 0.000000 2.712000
430 1 263.167800 0.701917 2.619591
431 1 263.167800 1.917674 1.917674
432 1 264.397556 2.348661 1.356000
433 1 266.857068 0.000000 2.712000
434 1 265.627312 0.701917 2.619591
435 1 265.627312 1.917674 1.917674
436 1 266.857068 2.348661 1.356000
437 1 269.316580 0.000000 2.712000
438 1 268.086824 0.701917 2.619591
439 1 268.086824 1.917674 1.917674
440 1 269.316580 2.348661 1.356000
441 1 271.776092 0.000000 2.712000
442 1 270.546336 0.701917 2.619591
443 1 270.546336 1.917674 1.917674
444 1 271.776092 2.348661 1.356000
445 1 274.235604 0.000000 2.712000
446 1 273.005848 0.701917 2.619591
447 1 273.005848 1.917674 1.917674
448 1 274.235604 2.348661 1.356000
449 1 276.695117 0.000000 2.712000
450 1 275.465360 0.701917 2.619591
451 1 275.465360 1.917674 1.917674
452 1 276.695117 2.348661 1.356000
453 1 279.154629 0.000000 2.712000
454 1 277.924873 0.701917 2.619591
455 1 277.924873 1.917674 1.917674
456 1 279.154629 2.348661 1.356000
457 1 281.614141 0.000000 2.712000
458 1 280.384385 0.701917 2.619591
459 1 280.384385 1.917674 1.917674
460 1 281.614141 2.348661 1.356000
461 1 284.073653 0.000000 2.712000
462 1 282.843897 0.701917 2.619591
463 1 282.843897 1.917674 1.917674
464 1 284.073653 2.348661 1.356000
465 1 286.533165 0.000000 2.712000
466 1 285.303409 0.701917 2.619591
467 1 285.303409 1.917674 1.917674
468 1 286.533165 2.348661 1.356000
469 1 288.992677 0.000000 2.712000
470 1 287.762921 0.701917 2.619591
471 1 287.762921 1.917674 1.917674
472 1 288.992677 2.348661 1.356000
473 1 291.452189 0.000000 2.712000
474 1 290.222433 0.701917 2.619591
475 1 290.222433 1.917674 1.917674
476 1 291.452189 2.348661 1.356000
477 1 293.911702 0.000000 2.712000
478 1 292.681945 0.701917 2.619591
479 1 292.681945 1.917674 1.917674
480 1 293.911702 2.348661 1.356000
481 1 296.371214 0.000000 2.712000
482 1 295.141458 0.701917 2.619591
483 1 295.141458 1.917674 1.917674
484 1 296.371214 2.348661 1.356000
485 1 298.830726 0.000000 2.712000
486 1 297.600970 0.701917 2.619591
487 1 297.600970 1.917674 1.917674
488 1 298.830726 2.348661 1.356000
489 1 301.290238 0.000000 2.712000
490 1 300.060482 0.701917 2.619591
491 1 300.060482 1.917674 1.917674
492 1 301.290238 2.348661 1.356000
493 1 303.749750 0.000000 2.712000
494 1 302.519994 0.701917 2.619591
495 1 302.519994 1.917674 1.917674
496 1 303.749750 2.348661 1.356000
497 1 306.209262 0.000000 2.712000
498 1 304.979506 0.701917 2.619591
499 1 304.979506 1.917674 1.917674
500 1 306.209262 2.348661 1.356000
501 1 308.668774 0.000000 2.712000
502 1 307.439018 0.701917 2.619591
503 1 307.439018 1.917674 1.917674
504 1 308.668774 2.348661 1.356000
505 1 311.128287 0.000000 2.712000
506 1 309.898531 0.701917 2.619591
507 1 309.898531 1.917674 1.917674
508 1 311.128287 2.348661 1.356000
509 1 313.587799 0.000000 2.712000
510 1 312.358043 0.701917 2.619591
511 1 312.358043 1.917674 1.917674
512 1 313.587799 2.348661 1.356000
513 1 316.047311 0.000000 2.712000
514 1 314.817555 0.701917 2.619591
515 1 314.817555 1.917674 1.917674
516 1 316.047311 2.348661 1.356000
517 1 318.506823 0.000000 2.712000
518 1 317.277067 0.701917 2.619591
519 1 317.277067 1.917674 1.917674
520 1 318.506823 2.348661 1.356000
521 1 320.966335 0.000000 2.712000
522 1 319.736579 0.701917 2.619591
523 1 319.736579 1.917674 1.917674
524 1 320.966335 2.348661 1.356000
525 1 323.425847 0.000000 2.712000
526 1 322.196091 0.701917 2.619591
527 1 322.196091 1.917674 1.917674
528 1 323.425847 2.348661 1.356000
529 1 325.885359 0.000000 2.712000
530 1 324.655603 0.701917 2.619591
531 1 324.655603 1.917674 1.917674
532 1 325.885359 2.348661 1.356000
533 1 328.344872 0.000000 2.712000
534 1 327.115116 0.701917 2.619591
535 1 327.115116 1.917674 1.917674
536 1 328.344872 2.348661 1.356000
537 1 330.804384 0.000000 2.712000
538 1 329.574628 0.701917 2.619591
539 1 329.574628 1.917674 1.917674
540 1 330.804384 2.348661 1.356000
541 1 333.263896 0.000000 2.712000
542 1 332.034140 0.701917 2.619591
543 1 332.034140 1.917674 1.917674
544 1 333.263896 2.348661 1.356000
545 1 335.723408 0.000000 2.712000
546 1 334.493652 0.701917 2.619591
547 1 334.493652 1.917674 1.917674
548 1 335.723408 2.348661 1.356000
549 1 338.182920 0.000000 2.712000
550 1 336.953164 0.701917 2.619591
551 1 336.953164 1.917674 1.917674
552 1 338.182920 2.348661 1.356000
553 1 340.642432 0.000000 2.712000
554 1 339.412676 0.701917 2.619591
555 1 339.412676 1.917674 1.917674
556 1 340.642432 2.348661 1.356000
557 1 343.101945 0.000000 2.712000
558 1 341.872188 0.701917 2.619591
559 1 341.872188 1.917674 1.917674
560 1 343.101945 2.348661 1.356000
561 1 345.561457 0.000000 2.712000
562 1 344.331701 0.701917 2.619591
563 1 344.331701 1.917674 1.917674
564 1 345.561457 2.348661 1.356000
565 1 348.020969 0.000000 2.712000
566 1 346.791213 0.701917 2.619591
567 1 346.791213 1.917674 1.917674
568 1 348.020969 2.348661 1.356000
569 1 350.480481 0.000000 2.712000
570 1 349.250725 0.701917 2.619591
571 1 349.250725 1.917674 1.917674
572 1 350.480481 2.348661 1.356000
573 1 352.939993 0.000000 2.712000
574 1 351.710237 0.701917 2.619591
575 1 351.710237 1.917674 1.917674
576 1 352.939993 2.348661 1.356000
577 1 355.399505 0.000000 2.712000
578 1 354.169749 0.701917 2.619591
579 1 354.169749 1.917674 1.917674
580 1 355.399505 2.348661 1.356000
581 1 357.859017 0.000000 2.712000
582 1 356.629261 0.701917 2.619591
583 1 356.629261 1.917674 1.917674
584 1 357.859017 2.348661 1.356000
585 1 360.318530 0.000000 2.712000
586 1 359.088773 0.701917 2.619591
587 1 359.088773 1.917674 1.917674
588 1 360.318530 2.348661 1.356000
589 1 362.778042 0.000000 2.712000
590 1 361.548286 0.701917 2.619591
591 1 361.548286 1.917674 1.917674
592 1 362.778042 2.348661 1.356000
593 1 365.237554 0.000000 2.712000
594 1 364.007798 0.701917 2.619591
595 1 364.007798 1.917674 1.917674
596 1 365.237554 2.348661 1.356000
597 1 367.697066 0.000000 2.712000
598 1 366.467310 0.701917 2.619591
599 1 366.467310 1.917674 1.917674
600 1 367.697066 2.348661 1.356000
601 1 370.156578 0.000000 2.712000
602 1 368.926822 0.701917 2.619591
603 1 368.926822 1.917674 1.917674
604 1 370.156578 2.348661 1.356000
605 1 372.616090 0.000000 2.712000
606 1 371.386334 0.701917 2.619591
607 1 371.386334 1.917674 1.917674
608 1 372.616090 2.348661 1.356000
609 1 375.075602 0.000000 2.712000
610 1 373.845846 0.701917 2.619591
611 1 373.845846 1.917674 1.917674
612 1 375.075602 2.348661 1.356000
613 1 377.535115 0.000000 2.712000
614 1 376.305358 0.701917 2.619591
615 1 376.305358 1.917674 1.917674
616 1 377.535115 2.348661 1.356000
617 1 379.994627 0.000000 2.712000
618 1 378.764871 0.701917 2.619591
619 1 378.764871 1.917674 1.917674
620 1 379.994627 2.348661 1.356000
621 1 382.454139 0.000000 2.712000
622 1 381.224383 0.701917 2.619591
623 1 381.224383 1.917674 1.917674
624 1 382.454139 2.348661 1.356000
625 1 384.913651 0.000000 2.712000
626 1 383.683895 0.701917 2.619591
627 1 383.683895 1.917674 1.917674
628 1 384.913651 2.348661 1.356000
629 1 387.373163 0.000000 2.712000
630 1 386.143407 0.701917 2.619591
631 1 386.143407 1.917674 1.917674
632 1 387.373163 2.348661 1.356000
633 1 389.832675 0.000000 2.712000
634 1 388.602919 0.701917 2.619591
635 1 388.602919 1.917674 1.917674
636 1 389.832675 2.348661 1.356000
637 1 392.292187 0.000000 2.712000
638 1 391.062431 0.701917 2.619591
639 1 391.062431 1.917674 1.917674
640 1 392.292187 2.348661 1.356000
641 1 394.751700 0.000000 2.712000
642 1 393.521944 0.701917 2.619591
643 1 393.521944 1.917674 1.917674
644 1 394.751700 2.348661 1.356000
645 1 397.211212 0.000000 2.712000
646 1 395.981456 0.701917 2.619591
647 1 395.981456 1.917674 1.917674
648 1 397.211212 2.348661 1.356000
649 1 399.670724 0.000000 2.712000
650 1 398.440968 0.701917 2.619591
651 1 398.440968 1.917674 1.917674
652 1 399.670724 2.348661 1.356000
653 1 402.130236 0.000000 2.712000
654 1 400.900480 0.701917 2.619591
655 1 400.900480 1.917674 1.917674
656 1 402.130236 2.348661 1.356000
657 1 404.589748 0.000000 2.712000
658 1 403.359992 0.701917 2.619591
659 1 403.359992 1.917674 1.917674
660 1 404.589748 2.348661 1.356000
661 1 407.049260 0.000000 2.712000
662 1 405.819504 0.701917 2.619591
663 1 405.819504 1.917674 1.917674
664 1 407.049260 2.348661 1.356000
665 1 409.508772 0.000000 2.712000
666 1 408.279016 0.701917 2.619591
667 1 408.279016 1.917674 1.917674
668 1 409.508772 2.348661 1.356000
669 1 411.968285 0.000000 2.712000
670 1 410.738529 0.701917 2.619591
671 1 410.738529 1.917674 1.917674
672 1 411.968285 2.348661 1.356000
673 1 414.427797 0.000000 2.712000
674 1 413.198041 0.701917 2.619591
675 1 413.198041 1.917674 1.917674
676 1 414.427797 2.348661 1.356000
677 1 416.887309 0.000000 2.712000
678 1 415.657553 0.701917 2.619591
679 1 415.657553 1.917674 1.917674
680 1 416.887309 2.348661 1.356000
681 1 419.346821 0.000000 2.712000
682 1 418.117065 0.701917 2.619591
683 1 418.117065 1.917674 1.917674
684 1 419.346821 2.348661 1.356000
685 1 421.806333 0.000000 2.712000
686 1 420.576577 0.701917 2.619591
687 1 420.576577 1.917674 1.917674
688 1 421.806333 2.348661 1.356000
689 1 424.265845 0.000000 2.712000
690 1 423.036089 0.701917 2.619591
691 1 423.036089 1.917674 1.917674
692 1 424.265845 2.348661 1.356000
693 1 426.725358 0.000000 2.712000
694 1 425.495601 0.701917 2.619591
695 1 425.495601 1.917674 1.917674
696 1 426.725358 2.348661 1.356000
697 1 429.184870 0.000000 2.712000
698 1 427.955114 0.701917 2.619591
699 1 427.955114 1.917674 1.917674
700 1 429.184870 2.348661 1.356000
701 1 431.644382 0.000000 2.712000
702 1 430.414626 0.701917 2.619591
703 1 430.414626 1.917674 1.917674
704 1 431.644382 2.348661 1.356000
705 1 434.103894 0.000000 2.712000
706 1 432.874138 0.701917 2.619591
707 1 432.874138 1.917674 1.917674
708 1 434.103894 2.348661 1.356000
709 1 436.563406 0.000000 2.712000
710 1 435.333650 0.701917 2.619591
711 1 435.333650 1.917674 1.917674
712 1 436.563406 2.348661 1.356000
713 1 439.022918 0.000000 2.712000
714 1 437.793162 0.701917 2.619591
715 1 437.793162 1.917674 1.917674
716 1 439.022918 2.348661 1.356000
717 1 441.482430 0.000000 2.712000
718 1 440.252674 0.701917 2.619591
719 1 440.252674 1.917674 1.917674
720 1 441.482430 2.348661 1.356000
721 1 443.941943 0.000000 2.712000
722 1 442.712186 0.701917 2.619591
723 1 442.712186 1.917674 1.917674
724 1 443.941943 2.348661 1.356000
725 1 446.401455 0.000000 2.712000
726 1 445.171699 0.701917 2.619591
727 1 445.171699 1.917674 1.917674
728 1 446.401455 2.348661 1.356000
729 1 448.860967 0.000000 2.712000
730 1 447.631211 0.701917 2.619591
731 1 447.631211 1.917674 1.917674
732 1 448.860967 2.348661 1.356000
733 1 451.320479 0.000000 2.712000
734 1 450.090723 0.701917 2.619591
735 1 450.090723 1.917674 1.917674
736 1 451.320479 2.348661 1.356000
737 1 453.779991 0.000000 2.712000
738 1 452.550235 0.701917 2.619591
739 1 452.550235 1.917674 1.917674
740 1 453.779991 2.348661 1.356000
741 1 456.239503 0.000000 2.712000
742 1 455.009747 0.701917 2.619591
743 1 455.009747 1.917674 1.917674
744 1 456.239503 2.348661 1.356000
745 1 458.699015 0.000000 2.712000
746 1 457.469259 0.701917 2.619591
747 1 457.469259 1.917674 1.917674
748 1 458.699015 2.348661 1.356000
749 1 461.158528 0.000000 2.712000
750 1 459.928771 0.701917 2.619591
751 1 459.928771 1.917674 1.917674
752 1 461.158528 2.348661 1.356000
753 1 463.618040 0.000000 2.712000
754 1 462.388284 0.701917 2.619591
755 1 462.388284 1.917674 1.917674
756 1 463.618040 2.348661 1.356000
757 1 466.077552 0.000000 2.712000
758 1 464.847796 0.701917 2.619591
759 1 464.847796 1.917674 1.917674
760 1 466.077552 2.348661 1.356000
761 1 468.537064 0.000000 2.712000
762 1 467.307308 0.701917 2.619591
763 1 467.307308 1.917674 1.917674
764 1 468.537064 2.348661 1.356000
765 1 470.996576 0.000000 2.712000
766 1 469.766820 0.701917 2.619591
767 1 469.766820 1.917674 1.917674
768 1 470.996576 2.348661 1.356000
769 1 473.456088 0.000000 2.712000
770 1 472.226332 0.701917 2.619591
771 1 472.226332 1.917674 1.917674
772 1 473.456088 2.348661 1.356000
773 1 475.915600 0.000000 2.712000
774 1 474.685844 0.701917 2.619591
775 1 474.685844 1.917674 1.917674
776 1 475.915600 2.348661 1.356000
777 1 478.375113 0.000000 2.712000
778 1 477.145357 0.701917 2.619591
779 1 477.145357 1.917674 1.917674
780 1 478.375113 2.348661 1.356000
781 1 480.834625 0.000000 2.712000
782 1 479.604869 0.701917 2.619591
783 1 479.604869 1.917674 1.917674
784 1 480.834625 2.348661 1.356000
785 1 483.294137 0.000000 2.712000
786 1 482.064381 0.701917 2.619591
787 1 482.064381 1.917674 1.917674
788 1 483.294137 2.348661 1.356000
789 1 485.753649 0.000000 2.712000
790 1 484.523893 0.701917 2.619591
791 1 484.523893 1.917674 1.917674
792 1 485.753649 2.348661 1.356000
793 1 488.213161 0.000000 2.712000
794 1 486.983405 0.701917 2.619591
795 1 486.983405 1.917674 1.917674
796 1 488.213161 2.348661 1.356000
797 1 490.672673 0.000000 2.712000
798 1 489.442917 0.701917 2.619591
799 1 489.442917 1.917674 1.917674
800 1 490.672673 2.348661 1.356000
801 1 1.229756 2.712000 0.000000
802 1 0.000000 2.619591 -0.701917
803 1 0.000000 1.917674 -1.917674
804 1 1.229756 1.356000 -2.348661
805 1 3.689268 2.712000 0.000000
806 1 2.459512 2.619591 -0.701917
807 1 2.459512 1.917674 -1.917674
808 1 3.689268 1.356000 -2.348661
809 1 6.148780 2.712000 0.000000
810 1 4.919024 2.619591 -0.701917
811 1 4.919024 1.917674 -1.917674
812 1 6.148780 1.356000 -2.348661
813 1 8.608293 2.712000 0.000000
814 1 7.378536 2.619591 -0.701917
815 1 7.378536 1.917674 -1.917674
816 1 8.608293 1.356000 -2.348661
817 1 11.067805 2.712000 0.000000
818 1 9.838049 2.619591 -0.701917
819 1 9.838049 1.917674 -1.917674
820 1 11.067805 1.356000 -2.348661
821 1 13.527317 2.712000 0.000000
822 1 12.297561 2.619591 -0.701917
823 1 12.297561 1.917674 -1.917674
824 1 13.527317 1.356000 -2.348661
825 1 15.986829 2.712000 0.000000
826 1 14.757073 2.619591 -0.701917
827 1 14.757073 1.917674 -1.917674
828 1 15.986829 1.356000 -2.348661
829 1 18.446341 2.712000 0.000000
830 1 17.216585 2.619591 -0.701917
831 1 17.216585 1.917674 -1.917674
832 1 18.446341 1.356000 -2.348661
833 1 20.905853 2.712000 0.000000
834 1 19.676097 2.619591 -0.701917
835 1 19.676097 1.917674 -1.917674
836 1 20.905853 1.356000 -2.348661
837 1 23.365365 2.712000 0.000000
838 1 22.135609 2.619591 -0.701917
839 1 22.135609 1.917674 -1.917674
840 1 23.365365 1.356000 -2.348661
841 1 25.824878 2.712000 0.000000
842 1 24.595121 2.619591 -0.701917
843 1 24.595121 1.917674 -1.917674
844 1 25.824878 1.356000 -2.348661
845 1 28.284390 2.712000 0.000000
846 1 27.054634 2.619591 -0.701917
847 1 27.054634 1.917674 -1.917674
848 1 28.284390 1.356000 -2.348661
849 1 30.743902 2.712000 0.000000
850 1 29.514146 2.619591 -0.701917
851 1 29.514146 1.917674 -1.917674
852 1 30.743902 1.356000 -2.348661
853 1 33.203414 2.712000 0.000000
854 1 31.973658 2.619591 -0.701917
855 1 31.973658 1.917674 -1.917674
856 1 33.203414 1.356000 -2.348661
857 1 35.662926 2.712000 0.000000
858 1 34.433170 2.619591 -0.701917
859 1 34.433170 1.917674 -1.917674
860 1 35.662926 1.356000 -2.348661
861 1 38.122438 2.712000 0.000000