ITEM: TIMESTEP
0
ITEM: NUMBER OF ATOMS
3200
ITEM: BOX BOUNDS pp pp pp
0.000000 491.902429
0.000000 17.040000
0.000000 200.000000
ITEM: ATOMS id type xu yu zu
1 1 1.229706 78.279045 2.712000
2 1 0.000000 78.990620 2.619591
3 1 0.000000 80.206377 1.917674
4 1 1.266597 80.627416 1.356000
5 1 3.687903 78.201793 2.712000
6 1 2.481155 78.951643 2.619591
7 1 2.519343 80.166800 1.917674
8 1 3.798540 80.547847 1.356000
9 1 6.142461 78.047365 2.712000
10 1 4.959862 78.834751 2.619591
11 1 5.036200 80.048108 1.917674
12 1 6.326735 80.388786 1.356000
13 1 8.590957 77.815914 2.712000
14 1 7.433674 78.640057 2.619591
15 1 7.548087 79.850418 1.917674
16 1 8.848686 80.150392 1.356000
17 1 11.030975 77.507668 2.712000
18 1 9.900150 78.367756 2.619591
19 1 10.052525 79.573926 1.917674
20 1 11.361904 79.832898 1.356000
21 1 13.460106 77.122932 2.712000
22 1 12.356855 78.018115 2.619591
23 1 12.547042 79.218903 1.917674
24 1 13.863909 79.436620 1.356000
25 1 15.875954 76.662084 2.712000
26 1 14.801366 77.591479 2.619591
27 1 15.029176 78.785701 1.917674
28 1 16.352233 78.961946 1.356000
29 1 18.276135 76.125580 2.712000
30 1 17.231270 77.088271 2.619591
31 1 17.496479 78.274748 1.917674
32 1 18.824419 78.409347 1.356000
33 1 20.658279 75.513949 2.712000
34 1 19.644168 76.508985 2.619591
35 1 19.946515 77.686546 1.917674
36 1 21.278027 77.779368 1.356000
37 1 23.020036 74.827796 2.712000
38 1 22.037681 75.854194 2.619591
39 1 22.376866 77.021677 1.917674
40 1 23.710637 77.072629 1.356000
41 1 25.359075 74.067796 2.712000
42 1 24.409444 75.124544 2.619591
43 1 24.785134 76.280797 1.917674
44 1 26.119847 76.289830 1.356000
45 1 27.673087 73.234700 2.712000
46 1 26.757118 74.320756 2.619591
47 1 27.168941 75.464638 1.917674
48 1 28.503280 75.431741 1.356000
49 1 29.959790 72.329330 2.712000
50 1 29.078387 73.443622 2.619591
51 1 29.525937 74.574003 1.917674
52 1 30.858583 74.499210 1.356000
53 1 32.216925 71.352581 2.712000
54 1 31.370958 72.494007 2.619591
55 1 31.853793 73.609773 1.917674
56 1 33.183433 73.493158 1.356000
57 1 34.442267 70.305414 2.712000
58 1 33.632570 71.472850 2.619591
59 1 34.150214 72.572900 1.917674
60 1 35.475535 72.414577 1.356000
61 1 36.633618 69.188865 2.712000
62 1 35.860991 70.381158 2.619591
63 1 36.412933 71.464405 1.917674
64 1 37.732627 71.264531 1.356000
65 1 38.788817 68.004035 2.712000
66 1 38.054022 69.220008 2.619591
67 1 38.639717 70.285384 1.917674
68 1 39.952481 70.044156 1.356000
69 1 40.905735 66.752093 2.712000
70 1 40.209497 67.990547 2.619591
71 1 40.828368 69.036999 1.917674
72 1 42.132907 68.754656 1.356000
73 1 42.982284 65.434274 2.712000
74 1 42.325291 66.693987 2.619591
75 1 42.976726 67.720484 1.917674
76 1 44.271753 67.397303 1.356000
77 1 45.016415 64.051880 2.712000
78 1 44.399315 65.331608 2.619591
79 1 45.082671 66.337136 1.917674
80 1 46.366908 65.973437 1.356000
81 1 47.006121 62.606275 2.712000
82 1 46.429522 63.904754 2.619591
83 1 47.144125 64.888322 1.917674
84 1 48.416304 64.484463 1.356000
85 1 48.949437 61.098884 2.712000
86 1 48.413908 62.414835 2.619591
87 1 49.159054 63.375471 1.917674
88 1 50.417920 62.931851 1.356000
89 1 50.844445 59.531197 2.712000
90 1 50.350516 60.863319 2.619591
91 1 51.125469 61.800076 1.917674
92 1 52.369779 61.317133 1.356000
93 1 52.689277 57.904759 2.712000
94 1 52.237435 59.251739 2.619591
95 1 53.041429 60.163691 1.917674
96 1 54.269955 59.641902 1.356000
97 1 54.482110 56.221177 2.712000
98 1 54.072801 57.581684 2.619591
99 1 54.905043 58.467932 1.917674
100 1 56.116574 57.907812 1.356000
101 1 56.221177 54.482110 2.712000
102 1 55.854803 55.854803 2.619591
103 1 56.714473 56.714473 1.917674
104 1 57.907812 56.116574 1.356000
105 1 57.904759 52.689277 2.712000
106 1 57.581684 54.072801 2.619591
107 1 58.467932 54.905043 1.917674
108 1 59.641902 54.269955 1.356000
109 1 59.531197 50.844445 2.712000
110 1 59.251739 52.237435 2.619591
111 1 60.163691 53.041429 1.917674
112 1 61.317133 52.369779 1.356000
113 1 61.098884 48.949437 2.712000
114 1 60.863319 50.350516 2.619591
115 1 61.800076 51.125469 1.917674
116 1 62.931851 50.417920 1.356000
117 1 62.606275 47.006121 2.712000
118 1 62.414835 48.413908 2.619591
119 1 63.375471 49.159054 1.917674
120 1 64.484463 48.416304 1.356000
121 1 64.051880 45.016415 2.712000
122 1 63.904754 46.429522 2.619591
123 1 64.888322 47.144125 1.917674
124 1 65.973437 46.366908 1.356000
125 1 65.434274 42.982284 2.712000
126 1 65.331608 44.399315 2.619591
127 1 66.337136 45.082671 1.917674
128 1 67.397303 44.271753 1.356000
129 1 66.752093 40.905735 2.712000
130 1 66.693987 42.325291 2.619591
131 1 67.720484 42.976726 1.917674
132 1 68.754656 42.132907 1.356000
133 1 68.004035 38.788817 2.712000
134 1 67.990547 40.209497 2.619591
135 1 69.036999 40.828368 1.917674
136 1 70.044156 39.952481 1.356000
137 1 69.188865 36.633618 2.712000
138 1 69.220008 38.054022 2.619591
139 1 70.285384 38.639717 1.917674
140 1 71.264531 37.732627 1.356000
141 1 70.305414 34.442267 2.712000
142 1 70.381158 35.860991 2.619591
143 1 71.464405 36.412933 1.917674
144 1 72.414577 35.475535 1.356000
145 1 71.352581 32.216925 2.712000
146 1 71.472850 33.632570 2.619591
147 1 72.572900 34.150214 1.917674
148 1 73.493158 33.183433 1.356000
149 1 72.329330 29.959790 2.712000
150 1 72.494007 31.370958 2.619591
151 1 73.609773 31.853793 1.917674
152 1 74.499210 30.858583 1.356000
153 1 73.234700 27.673087 2.712000
154 1 73.443622 29.078387 2.619591
155 1 74.574003 29.525937 1.917674
156 1 75.431741 28.503280 1.356000
157 1 74.067796 25.359075 2.712000
158 1 74.320756 26.757118 2.619591
159 1 75.464638 27.168941 1.917674
160 1 76.289830 26.119847 1.356000
161 1 74.827796 23.020036 2.712000
162 1 75.124544 24.409444 2.619591
163 1 76.280797 24.785134 1.917674
164 1 77.072629 23.710637 1.356000
165 1 75.513949 20.658279 2.712000
166 1 75.854194 22.037681 2.619591
167 1 77.021677 22.376866 1.917674
168 1 77.779368 21.278027 1.356000
169 1 76.125580 18.276135 2.712000
170 1 76.508985 19.644168 2.619591
171 1 77.686546 19.946515 1.917674
172 1 78.409347 18.824419 1.356000
173 1 76.662084 15.875954 2.712000
174 1 77.088271 17.231270 2.619591
175 1 78.274748 17.496479 1.917674
176 1 78.961946 16.352233 1.356000
177 1 77.122932 13.460106 2.712000
178 1 77.591479 14.801366 2.619591
179 1 78.785701 15.029176 1.917674
180 1 79.436620 13.863909 1.356000
181 1 77.507668 11.030975 2.712000
182 1 78.018115 12.356855 2.619591
183 1 79.218903 12.547042 1.917674
184 1 79.832898 11.361904 1.356000
185 1 77.815914 8.590957 2.712000
186 1 78.367756 9.900150 2.619591
187 1 79.573926 10.052525 1.917674
188 1 80.150392 8.848686 1.356000
189 1 78.047365 6.142461 2.712000
190 1 78.640057 7.433674 2.619591
191 1 79.850418 7.548087 1.917674
192 1 80.388786 6.326735 1.356000
193 1 78.201793 3.687903 2.712000
194 1 78.834751 4.959862 2.619591
195 1 80.048108 5.036200 1.917674
196 1 80.547847 3.798540 1.356000
197 1 78.279045 1.229706 2.712000
198 1 78.951643 2.481155 2.619591
199 1 80.166800 2.519343 1.917674
200 1 80.627416 1.266597 1.356000
201 1 78.279045 -1.229706 2.712000
202 1 78.990620 0.000000 2.619591
203 1 80.206377 0.000000 1.917674
204 1 80.627416 -1.266597 1.356000
205 1 78.201793 -3.687903 2.712000
206 1 78.951643 -2.481155 2.619591
207 1 80.166800 -2.519343 1.917674
208 1 80.547847 -3.798540 1.356000
209 1 78.047365 -6.142461 2.712000
210 1 78.834751 -4.959862 2.619591
211 1 80.048108 -5.036200 1.917674
212 1 80.388786 -6.326735 1.356000
213 1 77.815914 -8.590957 2.712000
214 1 78.640057 -7.433674 2.619591
215 1 79.850418 -7.548087 1.917674
216 1 80.150392 -8.848686 1.356000
217 1 77.507668 -11.030975 2.712000
218 1 78.367756 -9.900150 2.619591
219 1 79.573926 -10.052525 1.917674
220 1 79.832898 -11.361904 1.356000
221 1 77.122932 -13.460106 2.712000
222 1 78.018115 -12.356855 2.619591
223 1 79.218903 -12.547042 1.917674
224 1 79.436620 -13.863909 1.356000
225 1 76.662084 -15.875954 2.712000
226 1 77.591479 -14.801366 2.619591
227 1 78.785701 -15.029176 1.917674
228 1 78.961946 -16.352233 1.356000
229 1 76.125580 -18.276135 2.712000
230 1 77.088271 -17.231270 2.619591
231 1 78.274748 -17.496479 1.917674
232 1 78.409347 -18.824419 1.356000
233 1 75.513949 -20.658279 2.712000
234 1 76.508985 -19.644168 2.619591
235 1 77.686546 -19.946515 1.917674
236 1 77.779368 -21.278027 1.356000
237 1 74.827796 -23.020036 2.712000
238 1 75.854194 -22.037681 2.619591
239 1 77.021677 -22.376866 1.917674
240 1 77.072629 -23.710637 1.356000
241 1 74.067796 -25.359075 2.712000
242 1 75.124544 -24.409444 2.619591
243 1 76.280797 -24.785134 1.917674
244 1 76.289830 -26.119847 1.356000
245 1 73.234700 -27.673087 2.712000
246 1 74.320756 -26.757118 2.619591
247 1 75.464638 -27.168941 1.917674
248 1 75.431741 -28.503280 1.356000
249 1 72.329330 -29.959790 2.712000
250 1 73.443622 -29.078387 2.619591
251 1 74.574003 -29.525937 1.917674
252 1 74.499210 -30.858583 1.356000
253 1 71.352581 -32.216925 2.712000
254 1 72.494007 -31.370958 2.619591
255 1 73.609773 -31.853793 1.917674
256 1 73.493158 -33.183433 1.356000
257 1 70.305414 -34.442267 2.712000
258 1 71.472850 -33.632570 2.619591
259 1 72.572900 -34.150214 1.917674
260 1 72.414577 -35.475535 1.356000
261 1 69.188865 -36.633618 2.712000
262 1 70.381158 -35.860991 2.619591
263 1 71.464405 -36.412933 1.917674
264 1 71.264531 -37.732627 1.356000
265 1 68.004035 -38.788817 2.712000
266 1 69.220008 -38.054022 2.619591
267 1 70.285384 -38.639717 1.917674
268 1 70.044156 -39.952481 1.356000
269 1 66.752093 -40.905735 2.712000
270 1 67.990547 -40.209497 2.619591
271 1 69.036999 -40.828368 1.917674
272 1 68.754656 -42.132907 1.356000
273 1 65.434274 -42.982284 2.712000
274 1 66.693987 -42.325291 2.619591
275 1 67.720484 -42.976726 1.917674
276 1 67.397303 -44.271753 1.356000
277 1 64.051880 -45.016415 2.712000
278 1 65.331608 -44.399315 2.619591
279 1 66.337136 -45.082671 1.917674
280 1 65.973437 -46.366908 1.356000
281 1 62.606275 -47.006121 2.712000
282 1 63.904754 -46.429522 2.619591
283 1 64.888322 -47.144125 1.917674
284 1 64.484463 -48.416304 1.356000
285 1 61.098884 -48.949437 2.712000
286 1 62.414835 -48.413908 2.619591
287 1 63.375471 -49.159054 1.917674
288 1 62.931851 -50.417920 1.356000
289 1 59.531197 -50.844445 2.712000
290 1 60.863319 -50.350516 2.619591
291 1 61.800076 -51.125469 1.917674
292 1 61.317133 -52.369779 1.356000
293 1 57.904759 -52.689277 2.712000
294 1 59.251739 -52.237435 2.619591
295 1 60.163691 -53.041429 1.917674
296 1 59.641902 -54.269955 1.356000
297 1 56.221177 -54.482110 2.712000
298 1 57.581684 -54.072801 2.619591
299 1 58.467932 -54.905043 1.917674
300 1 57.907812 -56.116574 1.356000
301 1 54.482110 -56.221177 2.712000
302 1 55.854803 -55.854803 2.619591
303 1 56.714473 -56.714473 1.917674
304 1 56.116574 -57.907812 1.356000
305 1 52.689277 -57.904759 2.712000
306 1 54.072801 -57.581684 2.619591
307 1 54.905043 -58.467932 1.917674
308 1 54.269955 -59.641902 1.356000
309 1 50.844445 -59.531197 2.712000
310 1 52.237435 -59.251739 2.619591
311 1 53.041429 -60.163691 1.917674
312 1 52.369779 -61.317133 1.356000
313 1 48.949437 -61.098884 2.712000
314 1 50.350516 -60.863319 2.619591
315 1 51.125469 -61.800076 1.917674
316 1 50.417920 -62.931851 1.356000
317 1 47.006121 -62.606275 2.712000
318 1 48.413908 -62.414835 2.619591
319 1 49.159054 -63.375471 1.917674
320 1 48.416304 -64.484463 1.356000
321 1 45.016415 -64.051880 2.712000
322 1 46.429522 -63.904754 2.619591
323 1 47.144125 -64.888322 1.917674
324 1 46.366908 -65.973437 1.356000
325 1 42.982284 -65.434274 2.712000
326 1 44.399315 -65.331608 2.619591
327 1 45.082671 -66.337136 1.917674
328 1 44.271753 -67.397303 1.356000
329 1 40.905735 -66.752093 2.712000
330 1 42.325291 -66.693987 2.619591
331 1 42.976726 -67.720484 1.917674
332 1 42.132907 -68.754656 1.356000
333 1 38.788817 -68.004035 2.712000
334 1 40.209497 -67.990547 2.619591
335 1 40.828368 -69.036999 1.917674
336 1 39.952481 -70.044156 1.356000
337 1 36.633618 -69.188865 2.712000
338 1 38.054022 -69.220008 2.619591
339 1 38.639717 -70.285384 1.917674
340 1 37.732627 -71.264531 1.356000
341 1 34.442267 -70.305414 2.712000
342 1 35.860991 -70.381158 2.619591
343 1 36.412933 -71.464405 1.917674
344 1 35.475535 -72.414577 1.356000
345 1 32.216925 -71.352581 2.712000
346 1 33.632570 -71.472850 2.619591
347 1 34.150214 -72.572900 1.917674
348 1 33.183433 -73.493158 1.356000
349 1 29.959790 -72.329330 2.712000
350 1 31.370958 -72.494007 2.619591
351 1 31.853793 -73.609773 1.917674
352 1 30.858583 -74.499210 1.356000
353 1 27.673087 -73.234700 2.712000
354 1 29.078387 -73.443622 2.619591
355 1 29.525937 -74.574003 1.917674
356 1 28.503280 -75.431741 1.356000
357 1 25.359075 -74.067796 2.712000
358 1 26.757118 -74.320756 2.619591
359 1 27.168941 -75.464638 1.917674
360 1 26.119847 -76.289830 1.356000
361 1 23.020036 -74.827796 2.712000
362 1 24.409444 -75.124544 2.619591
363 1 24.785134 -76.280797 1.917674
364 1 23.710637 -77.072629 1.356000
365 1 20.658279 -75.513949 2.712000
366 1 22.037681 -75.854194 2.619591
367 1 22.376866 -77.021677 1.917674
368 1 21.278027 -77.779368 1.356000
369 1 18.276135 -76.125580 2.712000
370 1 19.644168 -76.508985 2.619591
371 1 19.946515 -77.686546 1.917674
372 1 18.824419 -78.409347 1.356000
373 1 15.875954 -76.662084 2.712000
374 1 17.231270 -77.088271 2.619591
375 1 17.496479 -78.274748 1.917674
376 1 16.352233 -78.961946 1.356000
377 1 13.460106 -77.122932 2.712000
378 1 14.801366 -77.591479 2.619591
379 1 15.029176 -78.785701 1.917674
380 1 13.863909 -79.436620 1.356000
381 1 11.030975 -77.507668 2.712000
382 1 12.356855 -78.018115 2.619591
383 1 12.547042 -79.218903 1.917674
384 1 11.361904 -79.832898 1.356000
385 1 8.590957 -77.815914 2.712000
386 1 9.900150 -78.367756 2.619591
387 1 10.052525 -79.573926 1.917674
388 1 8.848686 -80.150392 1.356000
389 1 6.142461 -78.047365 2.712000
390 1 7.433674 -78.640057 2.619591
391 1 7.548087 -79.850418 1.917674
392 1 6.326735 -80.388786 1.356000
393 1 3.687903 -78.201793 2.712000
394 1 4.959862 -78.834751 2.619591
395 1 5.036200 -80.048108 1.917674
396 1 3.798540 -80.547847 1.356000
397 1 1.229706 -78.279045 2.712000
398 1 2.481155 -78.951643 2.619591
399 1 2.519343 -80.166800 1.917674
400 1 1.266597 -80.627416 1.356000
401 1 -1.229706 -78.279045 2.712000
402 1 0.000000 -78.990620 2.619591
403 1 0.000000 -80.206377 1.917674
404 1 -1.266597 -80.627416 1.356000
405 1 -3.687903 -78.201793 2.712000
406 1 -2.481155 -78.951643 2.619591
407 1 -2.519343 -80.166800 1.917674
408 1 -3.798540 -80.547847 1.356000
409 1 -6.142461 -78.047365 2.712000
410 1 -4.959862 -78.834751 2.619591
411 1 -5.036200 -80.048108 1.917674
412 1 -6.326735 -80.388786 1.356000
413 1 -8.590957 -77.815914 2.712000
414 1 -7.433674 -78.640057 2.619591
415 1 -7.548087 -79.850418 1.917674
416 1 -8.848686 -80.150392 1.356000
417 1 -11.030975 -77.507668 2.712000
418 1 -9.900150 -78.367756 2.619591
419 1 -10.052525 -79.573926 1.917674
420 1 -11.361904 -79.832898 1.356000
421 1 -13.460106 -77.122932 2.712000
422 1 -12.356855 -78.018115 2.619591
423 1 -12.547042 -79.218903 1.917674
424 1 -13.863909 -79.436620 1.356000
425 1 -15.875954 -76.662084 2.712000
426 1 -14.801366 -77.591479 2.619591
427 1 -15.029176 -78.785701 1.917674
428 1 -16.352233 -78.961946 1.356000
429 1 -18.276135 -76.125580 2.712000
430 1 -17.231270 -77.088271 2.619591
431 1 -17.496479 -78.274748 1.917674
432 1 -18.824419 -78.409347 1.356000
433 1 -20.658279 -75.513949 2.712000
434 1 -19.644168 -76.508985 2.619591
435 1 -19.946515 -77.686546 1.917674
436 1 -21.278027 -77.779368 1.356000
437 1 -23.020036 -74.827796 2.712000
438 1 -22.037681 -75.854194 2.619591
439 1 -22.376866 -77.021677 1.917674
440 1 -23.710637 -77.072629 1.356000
441 1 -25.359075 -74.067796 2.712000
442 1 -24.409444 -75.124544 2.619591
443 1 -24.785134 -76.280797 1.917674
444 1 -26.119847 -76.289830 1.356000
445 1 -27.673087 -73.234700 2.712000
446 1 -26.757118 -74.320756 2.619591
447 1 -27.168941 -75.464638 1.917674
448 1 -28.503280 -75.431741 1.356000
449 1 -29.959790 -72.329330 2.712000
450 1 -29.078387 -73.443622 2.619591
451 1 -29.525937 -74.574003 1.917674
452 1 -30.858583 -74.499210 1.356000
453 1 -32.216925 -71.352581 2.712000
454 1 -31.370958 -72.494007 2.619591
455 1 -31.853793 -73.609773 1.917674
456 1 -33.183433 -73.493158 1.356000
457 1 -34.442267 -70.305414 2.712000
458 1 -33.632570 -71.472850 2.619591
459 1 -34.150214 -72.572900 1.917674
460 1 -35.475535 -72.414577 1.356000
461 1 -36.633618 -69.188865 2.712000
462 1 -35.860991 -70.381158 2.619591
463 1 -36.412933 -71.464405 1.917674
464 1 -37.732627 -71.264531 1.356000
465 1 -38.788817 -68.004035 2.712000
466 1 -38.054022 -69.220008 2.619591
467 1 -38.639717 -70.285384 1.917674
468 1 -39.952481 -70.044156 1.356000
469 1 -40.905735 -66.752093 2.712000
470 1 -40.209497 -67.990547 2.619591
471 1 -40.828368 -69.036999 1.917674
472 1 -42.132907 -68.754656 1.356000
473 1 -42.982284 -65.434274 2.712000
474 1 -42.325291 -66.693987 2.619591
475 1 -42.976726 -67.720484 1.917674
476 1 -44.271753 -67.397303 1.356000
477 1 -45.016415 -64.051880 2.712000
478 1 -44.399315 -65.331608 2.619591
479 1 -45.082671 -66.337136 1.917674
480 1 -46.366908 -65.973437 1.356000
481 1 -47.006121 -62.606275 2.712000
482 1 -46.429522 -63.904754 2.619591
483 1 -47.144125 -64.888322 1.917674
484 1 -48.416304 -64.484463 1.356000
485 1 -48.949437 -61.098884 2.712000
486 1 -48.413908 -62.414835 2.619591
487 1 -49.159054 -63.375471 1.917674
488 1 -50.417920 -62.931851 1.356000
489 1 -50.844445 -59.531197 2.712000
490 1 -50.350516 -60.863319 2.619591
491 1 -51.125469 -61.800076 1.917674
492 1 -52.369779 -61.317133 1.356000
493 1 -52.689277 -57.904759 2.712000
494 1 -52.237435 -59.251739 2.619591
495 1 -53.041429 -60.163691 1.917674
496 1 -54.269955 -59.641902 1.356000
497 1 -54.482110 -56.221177 2.712000
498 1 -54.072801 -57.581684 2.619591
499 1 -54.905043 -58.467932 1.917674
500 1 -56.116574 -57.907812 1.356000
501 1 -56.221177 -54.482110 2.712000
502 1 -55.854803 -55.854803 2.619591
503 1 -56.714473 -56.714473 1.917674
504 1 -57.907812 -56.116574 1.356000
505 1 -57.904759 -52.689277 2.712000
506 1 -57.581684 -54.072801 2.619591
507 1 -58.467932 -54.905043 1.917674
508 1 -59.641902 -54.269955 1.356000
509 1 -59.531197 -50.844445 2.712000
510 1 -59.251739 -52.237435 2.619591
511 1 -60.163691 -53.041429 1.917674
512 1 -61.317133 -52.369779 1.356000
513 1 -61.098884 -48.949437 2.712000
514 1 -60.863319 -50.350516 2.619591
515 1 -61.800076 -51.125469 1.917674
516 1 -62.931851 -50.417920 1.356000
517 1 -62.606275 -47.006121 2.712000
518 1 -62.414835 -48.413908 2.619591
519 1 -63.375471 -49.159054 1.917674
520 1 -64.484463 -48.416304 1.356000
521 1 -64.051880 -45.016415 2.712000
522 1 -63.904754 -46.429522 2.619591
523 1 -64.888322 -47.144125 1.917674
524 1 -65.973437 -46.366908 1.356000
525 1 -65.434274 -42.982284 2.712000
526 1 -65.331608 -44.399315 2.619591
527 1 -66.337136 -45.082671 1.917674
528 1 -67.397303 -44.271753 1.356000
529 1 -66.752093 -40.905735 2.712000
530 1 -66.693987 -42.325291 2.619591
531 1 -67.720484 -42.976726 1.917674
532 1 -68.754656 -42.132907 1.356000
533 1 -68.004035 -38.788817 2.712000
534 1 -67.990547 -40.209497 2.619591
535 1 -69.036999 -40.828368 1.917674
536 1 -70.044156 -39.952481 1.356000
537 1 -69.188865 -36.633618 2.712000
538 1 -69.220008 -38.054022 2.619591
539 1 -70.285384 -38.639717 1.917674
540 1 -71.264531 -37.732627 1.356000
541 1 -70.305414 -34.442267 2.712000
542 1 -70.381158 -35.860991 2.619591
543 1 -71.464405 -36.412933 1.917674
544 1 -72.414577 -35.475535 1.356000
545 1 -71.352581 -32.216925 2.712000
546 1 -71.472850 -33.632570 2.619591
547 1 -72.572900 -34.150214 1.917674
548 1 -73.493158 -33.183433 1.356000
549 1 -72.329330 -29.959790 2.712000
550 1 -72.494007 -31.370958 2.619591
551 1 -73.609773 -31.853793 1.917674
552 1 -74.499210 -30.858583 1.356000
553 1 -73.234700 -27.673087 2.712000
554 1 -73.443622 -29.078387 2.619591
555 1 -74.574003 -29.525937 1.917674
556 1 -75.431741 -28.503280 1.356000
557 1 -74.067796 -25.359075 2.712000
558 1 -74.320756 -26.757118 2.619591
559 1 -75.464638 -27.168941 1.917674
560 1 -76.289830 -26.119847 1.356000
561 1 -74.827796 -23.020036 2.712000
562 1 -75.124544 -24.409444 2.619591
563 1 -76.280797 -24.785134 1.917674
564 1 -77.072629 -23.710637 1.356000
565 1 -75.513949 -20.658279 2.712000
566 1 -75.854194 -22.037681 2.619591
567 1 -77.021677 -22.376866 1.917674
568 1 -77.779368 -21.278027 1.356000
569 1 -76.125580 -18.276135 2.712000
570 1 -76.508985 -19.644168 2.619591
571 1 -77.686546 -19.946515 1.917674
572 1 -78.409347 -18.824419 1.356000
573 1 -76.662084 -15.875954 2.712000
574 1 -77.088271 -17.231270 2.619591
575 1 -78.274748 -17.496479 1.917674
576 1 -78.961946 -16.352233 1.356000
577 1 -77.122932 -13.460106 2.712000
578 1 -77.591479 -14.801366 2.619591
579 1 -78.785701 -15.029176 1.917674
580 1 -79.436620 -13.863909 1.356000
581 1 -77.507668 -11.030975 2.712000
582 1 -78.018115 -12.356855 2.619591
583 1 -79.218903 -12.547042 1.917674
584 1 -79.832898 -11.361904 1.356000
585 1 -77.815914 -8.590957 2.712000
586 1 -78.367756 -9.900150 2.619591
587 1 -79.573926 -10.052525 1.917674
588 1 -80.150392 -8.848686 1.356000
589 1 -78.047365 -6.142461 2.712000
590 1 -78.640057 -7.433674 2.619591
591 1 -79.850418 -7.548087 1.917674
592 1 -80.388786 -6.326735 1.356000
593 1 -78.201793 -3.687903 2.712000
594 1 -78.834751 -4.959862 2.619591
595 1 -80.048108 -5.036200 1.917674
596 1 -80.547847 -3.798540 1.356000
597 1 -78.279045 -1.229706 2.712000
598 1 -78.951643 -2.481155 2.619591
599 1 -80.166800 -2.519343 1.917674
600 1 -80.627416 -1.266597 1.356000
601 1 -78.279045 1.229706 2.712000
602 1 -78.990620 -0.000000 2.619591
603 1 -80.206377 -0.000000 1.917674
604 1 -80.627416 1.266597 1.356000
605 1 -78.201793 3.687903 2.712000
606 1 -78.951643 2.481155 2.619591
607 1 -80.166800 2.519343 1.917674
608 1 -80.547847 3.798540 1.356000
609 1 -78.047365 6.142461 2.712000
610 1 -78.834751 4.959862 2.619591
611 1 -80.048108 5.036200 1.917674
612 1 -80.388786 6.326735 1.356000
613 1 -77.815914 8.590957 2.712000
614 1 -78.640057 7.433674 2.619591
615 1 -79.850418 7.548087 1.917674
616 1 -80.150392 8.848686 1.356000
617 1 -77.507668 11.030975 2.712000
618 1 -78.367756 9.900150 2.619591
619 1 -79.573926 10.052525 1.917674
620 1 -79.832898 11.361904 1.356000
621 1 -77.122932 13.460106 2.712000
622 1 -78.018115 12.356855 2.619591
623 1 -79.218903 12.547042 1.917674
624 1 -79.436620 13.863909 1.356000
625 1 -76.662084 15.875954 2.712000
626 1 -77.591479 14.801366 2.619591
627 1 -78.785701 15.029176 1.917674
628 1 -78.961946 16.352233 1.356000
629 1 -76.125580 18.276135 2.712000
630 1 -77.088271 17.231270 2.619591
631 1 -78.274748 17.496479 1.917674
632 1 -78.409347 18.824419 1.356000
633 1 -75.513949 20.658279 2.712000
634 1 -76.508985 19.644168 2.619591
635 1 -77.686546 19.946515 1.917674
636 1 -77.779368 21.278027 1.356000
637 1 -74.827796 23.020036 2.712000
638 1 -75.854194 22.037681 2.619591
639 1 -77.021677 22.376866 1.917674
640 1 -77.072629 23.710637 1.356000
641 1 -74.067796 25.359075 2.712000
642 1 -75.124544 24.409444 2.619591
643 1 -76.280797 24.785134 1.917674
644 1 -76.289830 26.119847 1.356000
645 1 -73.234700 27.673087 2.712000
646 1 -74.320756 26.757118 2.619591
647 1 -75.464638 27.168941 1.917674
648 1 -75.431741 28.503280 1.356000
649 1 -72.329330 29.959790 2.712000
650 1 -73.443622 29.078387 2.619591
651 1 -74.574003 29.525937 1.917674
652 1 -74.499210 30.858583 1.356000
653 1 -71.352581 32.216925 2.712000
654 1 -72.494007 31.370958 2.619591
655 1 -73.609773 31.853793 1.917674
656 1 -73.493158 33.183433 1.356000
657 1 -70.305414 34.442267 2.712000
658 1 -71.472850 33.632570 2.619591
659 1 -72.572900 34.150214 1.917674
660 1 -72.414577 35.475535 1.356000
661 1 -69.188865 36.633618 2.712000
662 1 -70.381158 35.860991 2.619591
663 1 -71.464405 36.412933 1.917674
664 1 -71.264531 37.732627 1.356000
665 1 -68.004035 38.788817 2.712000
666 1 -69.220008 38.054022 2.619591
667 1 -70.285384 38.639717 1.917674
668 1 -70.044156 39.952481 1.356000
669 1 -66.752093 40.905735 2.712000
670 1 -67.990547 40.209497 2.619591
671 1 -69.036999 40.828368 1.917674
672 1 -68.754656 42.132907 1.356000
673 1 -65.434274 42.982284 2.712000
674 1 -66.693987 42.325291 2.619591
675 1 -67.720484 42.976726 1.917674
676 1 -67.397303 44.271753 1.356000
677 1 -64.051880 45.016415 2.712000
678 1 -65.331608 44.399315 2.619591
679 1 -66.337136 45.082671 1.917674
680 1 -65.973437 46.366908 1.356000
681 1 -62.606275 47.006121 2.712000
682 1 -63.904754 46.429522 2.619591
683 1 -64.888322 47.144125 1.917674
684 1 -64.484463 48.416304 1.356000
685 1 -61.098884 48.949437 2.712000
686 1 -62.414835 48.413908 2.619591
687 1 -63.375471 49.159054 1.917674
688 1 -62.931851 50.417920 1.356000
689 1 -59.531197 50.844445 2.712000
690 1 -60.863319 50.350516 2.619591
691 1 -61.800076 51.125469 1.917674
692 1 -61.317133 52.369779 1.356000
693 1 -57.904759 52.689277 2.712000
694 1 -59.251739 52.237435 2.619591
695 1 -60.163691 53.041429 1.917674
696 1 -59.641902 54.269955 1.356000
697 1 -56.221177 54.482110 2.712000
698 1 -57.581684 54.072801 2.619591
699 1 -58.467932 54.905043 1.917674
700 1 -57.907812 56.116574 1.356000
701 1 -54.482110 56.221177 2.712000
702 1 -55.854803 55.854803 2.619591
703 1 -56.714473 56.714473 1.917674
704 1 -56.116574 57.907812 1.356000
705 1 -52.689277 57.904759 2.712000
706 1 -54.072801 57.581684 2.619591
707 1 -54.905043 58.467932 1.917674
708 1 -54.269955 59.641902 1.356000
709 1 -50.844445 59.531197 2.712000
710 1 -52.237435 59.251739 2.619591
711 1 -53.041429 60.163691 1.917674
712 1 -52.369779 61.317133 1.356000
713 1 -48.949437 61.098884 2.712000
714 1 -50.350516 60.863319 2.619591
715 1 -51.125469 61.800076 1.917674
716 1 -50.417920 62.931851 1.356000
717 1 -47.006121 62.606275 2.712000
718 1 -48.413908 62.414835 2.619591
719 1 -49.159054 63.375471 1.917674
720 1 -48.416304 64.484463 1.356000
721 1 -45.016415 64.051880 2.712000
722 1 -46.429522 63.904754 2.619591
723 1 -47.144125 64.888322 1.917674
724 1 -46.366908 65.973437 1.356000
725 1 -42.982284 65.434274 2.712000
726 1 -44.399315 65.331608 2.619591
727 1 -45.082671 66.337136 1.917674
728 1 -44.271753 67.397303 1.356000
729 1 -40.905735 66.752093 2.712000
730 1 -42.325291 66.693987 2.619591
731 1 -42.976726 67.720484 1.917674
732 1 -42.132907 68.754656 1.356000
733 1 -38.788817 68.004035 2.712000
734 1 -40.209497 67.990547 2.619591
735 1 -40.828368 69.036999 1.917674
736 1 -39.952481 70.044156 1.356000
737 1 -36.633618 69.188865 2.712000
738 1 -38.054022 69.220008 2.619591
739 1 -38.639717 70.285384 1.917674
740 1 -37.732627 71.264531 1.356000
741 1 -34.442267 70.305414 2.712000
742 1 -35.860991 70.381158 2.619591
743 1 -36.412933 71.464405 1.917674
744 1 -35.475535 72.414577 1.356000
745 1 -32.216925 71.352581 2.712000
746 1 -33.632570 71.472850 2.619591
747 1 -34.150214 72.572900 1.917674
748 1 -33.183433 73.493158 1.356000
749 1 -29.959790 72.329330 2.712000
750 1 -31.370958 72.494007 2.619591
751 1 -31.853793 73.609773 1.917674
752 1 -30.858583 74.499210 1.356000
753 1 -27.673087 73.234700 2.712000
754 1 -29.078387 73.443622 2.619591
755 1 -29.525937 74.574003 1.917674
756 1 -28.503280 75.431741 1.356000
757 1 -25.359075 74.067796 2.712000
758 1 -26.757118 74.320756 2.619591
759 1 -27.168941 75.464638 1.917674
760 1 -26.119847 76.289830 1.356000
761 1 -23.020036 74.827796 2.712000
762 1 -24.409444 75.124544 2.619591
763 1 -24.785134 76.280797 1.917674
764 1 -23.710637 77.072629 1.356000
765 1 -20.658279 75.513949 2.712000
766 1 -22.037681 75.854194 2.619591
767 1 -22.376866 77.021677 1.917674
768 1 -21.278027 77.779368 1.356000
769 1 -18.276135 76.125580 2.712000
770 1 -19.644168 76.508985 2.619591
771 1 -19.946515 77.686546 1.917674
772 1 -18.824419 78.409347 1.356000
773 1 -15.875954 76.662084 2.712000
774 1 -17.231270 77.088271 2.619591
775 1 -17.496479 78.274748 1.917674
776 1 -16.352233 78.961946 1.356000
777 1 -13.460106 77.122932 2.712000
778 1 -14.801366 77.591479 2.619591
779 1 -15.029176 78.785701 1.917674
780 1 -13.863909 79.436620 1.356000
781 1 -11.030975 77.507668 2.712000
782 1 -12.356855 78.018115 2.619591
783 1 -12.547042 79.218903 1.917674
784 1 -11.361904 79.832898 1.356000
785 1 -8.590957 77.815914 2.712000
786 1 -9.900150 78.367756 2.619591
787 1 -10.052525 79.573926 1.917674
788 1 -8.848686 80.150392 1.356000
789 1 -6.142461 78.047365 2.712000
790 1 -7.433674 78.640057 2.619591
791 1 -7.548087 79.850418 1.917674
792 1 -6.326735 80.388786 1.356000
793 1 -3.687903 78.201793 2.712000
794 1 -4.959862 78.834751 2.619591
795 1 -5.036200 80.048108 1.917674
796 1 -3.798540 80.547847 1.356000
797 1 -1.229706 78.279045 2.712000
798 1 -2.481155 78.951643 2.619591
799 1 -2.519343 80.166800 1.917674
800 1 -1.266597 80.627416 1.356000
801 1 1.272304 80.990711 0.000000
802 1 0.000000 80.908294 -0.701917
803 1 0.000000 80.206377 -1.917674
804 1 1.251005 79.634878 -2.348661
805 1 3.815656 80.910782 0.000000
806 1 2.541391 80.868371 -0.701917
807 1 2.519343 80.166800 -1.917674
808 1 3.751779 79.556288 -2.348661
809 1 6.355242 80.751005 0.000000
810 1 5.080274 80.748640 -0.701917
811 1 5.036200 80.048108 -1.917674
812 1 6.248851 79.399185 -2.348661
813 1 8.888556 80.511537 0.000000
814 1 7.614143 80.549220 -0.701917
815 1 7.548087 79.850418 -1.917674
816 1 8.739757 79.163725 -2.348661
817 1 11.413099 80.192613 0.000000
818 1 10.140498 80.270308 -0.701917
819 1 10.052525 79.573926 -1.917674
820 1 11.222037 78.850140 -2.348661
821 1 13.926378 79.794548 0.000000
822 1 12.656846 79.912179 -0.701917
823 1 12.547042 79.218903 -1.917674
824 1 13.693242 78.458740 -2.348661
825 1 16.425914 79.317736 0.000000
826 1 15.160703 79.475186 -0.701917
827 1 15.029176 78.785701 -1.917674
828 1 16.150934 77.989910 -2.348661
829 1 18.909239 78.762648 0.000000
830 1 17.649598 78.959761 -0.701917
831 1 17.496479 78.274748 -1.917674
832 1 18.592687 77.444114 -2.348661
833 1 21.373903 78.129829 0.000000
834 1 20.121075 78.366411 -0.701917
835 1 19.946515 77.686546 -1.917674
836 1 21.016091 76.821889 -2.348661