# LAMMPS data file

200 atoms
0 bonds

1 atom types
0 bond types

0.000000000      100.0     xlo xhi
0.000000000      10.0      ylo yhi
0.000000000      20.0      zlo zhi

Masses

1 1.000000000      # C

Atoms

1 1 1 0 1.5915494309189535 0.0 0.0
2 1 1 0 1.2875905370012097 0.9354892837886392 0.0
3 1 1 0 0.4918158215417331 1.513653457281314 0.0
4 1 1 0 -0.4918158215417329 1.5136534572813143 0.0
5 1 1 0 -1.2875905370012097 0.9354892837886393 0.0
6 1 1 0 -1.5915494309189535 1.949085916259688e-16 0.0
7 1 1 0 -1.28759053700121 -0.9354892837886389 0.0
8 1 1 0 -0.49181582154173326 -1.513653457281314 0.0
9 1 1 0 0.4918158215417327 -1.5136534572813143 0.0
10 1 1 0 1.2875905370012097 -0.9354892837886395 0.0
11 1 1 0 1.5915494309189535 0.0 1.0
12 1 1 0 1.2875905370012097 0.9354892837886392 1.0
13 1 1 0 0.4918158215417331 1.513653457281314 1.0
14 1 1 0 -0.4918158215417329 1.5136534572813143 1.0
15 1 1 0 -1.2875905370012097 0.9354892837886393 1.0
16 1 1 0 -1.5915494309189535 1.949085916259688e-16 1.0
17 1 1 0 -1.28759053700121 -0.9354892837886389 1.0
18 1 1 0 -0.49181582154173326 -1.513653457281314 1.0
19 1 1 0 0.4918158215417327 -1.5136534572813143 1.0
20 1 1 0 1.2875905370012097 -0.9354892837886395 1.0
21 1 1 0 1.5915494309189535 0.0 2.0
22 1 1 0 1.2875905370012097 0.9354892837886392 2.0
23 1 1 0 0.4918158215417331 1.513653457281314 2.0
24 1 1 0 -0.4918158215417329 1.5136534572813143 2.0
25 1 1 0 -1.2875905370012097 0.9354892837886393 2.0
26 1 1 0 -1.5915494309189535 1.949085916259688e-16 2.0
27 1 1 0 -1.28759053700121 -0.9354892837886389 2.0
28 1 1 0 -0.49181582154173326 -1.513653457281314 2.0
29 1 1 0 0.4918158215417327 -1.5136534572813143 2.0
30 1 1 0 1.2875905370012097 -0.9354892837886395 2.0
31 1 1 0 1.5915494309189535 0.0 3.0
32 1 1 0 1.2875905370012097 0.9354892837886392 3.0
33 1 1 0 0.4918158215417331 1.513653457281314 3.0
34 1 1 0 -0.4918158215417329 1.5136534572813143 3.0
35 1 1 0 -1.2875905370012097 0.9354892837886393 3.0
36 1 1 0 -1.5915494309189535 1.949085916259688e-16 3.0
37 1 1 0 -1.28759053700121 -0.9354892837886389 3.0
38 1 1 0 -0.49181582154173326 -1.513653457281314 3.0
39 1 1 0 0.4918158215417327 -1.5136534572813143 3.0
40 1 1 0 1.2875905370012097 -0.9354892837886395 3.0
41 1 1 0 1.5915494309189535 0.0 4.0
42 1 1 0 1.2875905370012097 0.9354892837886392 4.0
43 1 1 0 0.4918158215417331 1.513653457281314 4.0
44 1 1 0 -0.4918158215417329 1.5136534572813143 4.0
45 1 1 0 -1.2875905370012097 0.9354892837886393 4.0
46 1 1 0 -1.5915494309189535 1.949085916259688e-16 4.0
47 1 1 0 -1.28759053700121 -0.9354892837886389 4.0
48 1 1 0 -0.49181582154173326 -1.513653457281314 4.0
49 1 1 0 0.4918158215417327 -1.5136534572813143 4.0
50 1 1 0 1.2875905370012097 -0.9354892837886395 4.0
51 1 1 0 1.5915494309189535 0.0 5.0
52 1 1 0 1.2875905370012097 0.9354892837886392 5.0
53 1 1 0 0.4918158215417331 1.513653457281314 5.0
54 1 1 0 -0.4918158215417329 1.5136534572813143 5.0
55 1 1 0 -1.2875905370012097 0.9354892837886393 5.0
56 1 1 0 -1.5915494309189535 1.949085916259688e-16 5.0
57 1 1 0 -1.28759053700121 -0.9354892837886389 5.0
58 1 1 0 -0.49181582154173326 -1.513653457281314 5.0
59 1 1 0 0.4918158215417327 -1.5136534572813143 5.0
60 1 1 0 1.2875905370012097 -0.9354892837886395 5.0
61 1 1 0 1.5915494309189535 0.0 6.0
62 1 1 0 1.2875905370012097 0.9354892837886392 6.0
63 1 1 0 0.4918158215417331 1.513653457281314 6.0
64 1 1 0 -0.4918158215417329 1.5136534572813143 6.0
65 1 1 0 -1.2875905370012097 0.9354892837886393 6.0
66 1 1 0 -1.5915494309189535 1.949085916259688e-16 6.0
67 1 1 0 -1.28759053700121 -0.9354892837886389 6.0
68 1 1 0 -0.49181582154173326 -1.513653457281314 6.0
69 1 1 0 0.4918158215417327 -1.5136534572813143 6.0
70 1 1 0 1.2875905370012097 -0.9354892837886395 6.0
71 1 1 0 1.5915494309189535 0.0 7.0
72 1 1 0 1.2875905370012097 0.9354892837886392 7.0
73 1 1 0 0.4918158215417331 1.513653457281314 7.0
74 1 1 0 -0.4918158215417329 1.5136534572813143 7.0
75 1 1 0 -1.2875905370012097 0.9354892837886393 7.0
76 1 1 0 -1.5915494309189535 1.949085916259688e-16 7.0
77 1 1 0 -1.28759053700121 -0.9354892837886389 7.0
78 1 1 0 -0.49181582154173326 -1.513653457281314 7.0
79 1 1 0 0.4918158215417327 -1.5136534572813143 7.0
80 1 1 0 1.2875905370012097 -0.9354892837886395 7.0
81 1 1 0 1.5915494309189535 0.0 8.0
82 1 1 0 1.2875905370012097 0.9354892837886392 8.0
83 1 1 0 0.4918158215417331 1.513653457281314 8.0
84 1 1 0 -0.4918158215417329 1.5136534572813143 8.0
85 1 1 0 -1.2875905370012097 0.9354892837886393 8.0
86 1 1 0 -1.5915494309189535 1.949085916259688e-16 8.0
87 1 1 0 -1.28759053700121 -0.9354892837886389 8.0
88 1 1 0 -0.49181582154173326 -1.513653457281314 8.0
89 1 1 0 0.4918158215417327 -1.5136534572813143 8.0
90 1 1 0 1.2875905370012097 -0.9354892837886395 8.0
91 1 1 0 1.5915494309189535 0.0 9.0
92 1 1 0 1.2875905370012097 0.9354892837886392 9.0
93 1 1 0 0.4918158215417331 1.513653457281314 9.0
94 1 1 0 -0.4918158215417329 1.5136534572813143 9.0
95 1 1 0 -1.2875905370012097 0.9354892837886393 9.0
96 1 1 0 -1.5915494309189535 1.949085916259688e-16 9.0
97 1 1 0 -1.28759053700121 -0.9354892837886389 9.0
98 1 1 0 -0.49181582154173326 -1.513653457281314 9.0
99 1 1 0 0.4918158215417327 -1.5136534572813143 9.0
100 1 1 0 1.2875905370012097 -0.9354892837886395 9.0
101 1 1 0 1.5915494309189535 0.0 10.0
102 1 1 0 1.2875905370012097 0.9354892837886392 10.0
103 1 1 0 0.4918158215417331 1.513653457281314 10.0
104 1 1 0 -0.4918158215417329 1.5136534572813143 10.0
105 1 1 0 -1.2875905370012097 0.9354892837886393 10.0
106 1 1 0 -1.5915494309189535 1.949085916259688e-16 10.0
107 1 1 0 -1.28759053700121 -0.9354892837886389 10.0
108 1 1 0 -0.49181582154173326 -1.513653457281314 10.0
109 1 1 0 0.4918158215417327 -1.5136534572813143 10.0
110 1 1 0 1.2875905370012097 -0.9354892837886395 10.0
111 1 1 0 1.5915494309189535 0.0 11.0
112 1 1 0 1.2875905370012097 0.9354892837886392 11.0
113 1 1 0 0.4918158215417331 1.513653457281314 11.0
114 1 1 0 -0.4918158215417329 1.5136534572813143 11.0
115 1 1 0 -1.2875905370012097 0.9354892837886393 11.0
116 1 1 0 -1.5915494309189535 1.949085916259688e-16 11.0
117 1 1 0 -1.28759053700121 -0.9354892837886389 11.0
118 1 1 0 -0.49181582154173326 -1.513653457281314 11.0
119 1 1 0 0.4918158215417327 -1.5136534572813143 11.0
120 1 1 0 1.2875905370012097 -0.9354892837886395 11.0
121 1 1 0 1.5915494309189535 0.0 12.0
122 1 1 0 1.2875905370012097 0.9354892837886392 12.0
123 1 1 0 0.4918158215417331 1.513653457281314 12.0
124 1 1 0 -0.4918158215417329 1.5136534572813143 12.0
125 1 1 0 -1.2875905370012097 0.9354892837886393 12.0
126 1 1 0 -1.5915494309189535 1.949085916259688e-16 12.0
127 1 1 0 -1.28759053700121 -0.9354892837886389 12.0
128 1 1 0 -0.49181582154173326 -1.513653457281314 12.0
129 1 1 0 0.4918158215417327 -1.5136534572813143 12.0
130 1 1 0 1.2875905370012097 -0.9354892837886395 12.0
131 1 1 0 1.5915494309189535 0.0 13.0
132 1 1 0 1.2875905370012097 0.9354892837886392 13.0
133 1 1 0 0.4918158215417331 1.513653457281314 13.0
134 1 1 0 -0.4918158215417329 1.5136534572813143 13.0
135 1 1 0 -1.2875905370012097 0.9354892837886393 13.0
136 1 1 0 -1.5915494309189535 1.949085916259688e-16 13.0
137 1 1 0 -1.28759053700121 -0.9354892837886389 13.0
138 1 1 0 -0.49181582154173326 -1.513653457281314 13.0
139 1 1 0 0.4918158215417327 -1.5136534572813143 13.0
140 1 1 0 1.2875905370012097 -0.9354892837886395 13.0
141 1 1 0 1.5915494309189535 0.0 14.0
142 1 1 0 1.2875905370012097 0.9354892837886392 14.0
143 1 1 0 0.4918158215417331 1.513653457281314 14.0
144 1 1 0 -0.4918158215417329 1.5136534572813143 14.0
145 1 1 0 -1.2875905370012097 0.9354892837886393 14.0
146 1 1 0 -1.5915494309189535 1.949085916259688e-16 14.0
147 1 1 0 -1.28759053700121 -0.9354892837886389 14.0
148 1 1 0 -0.49181582154173326 -1.513653457281314 14.0
149 1 1 0 0.4918158215417327 -1.5136534572813143 14.0
150 1 1 0 1.2875905370012097 -0.9354892837886395 14.0
151 1 1 0 1.5915494309189535 0.0 15.0
152 1 1 0 1.2875905370012097 0.9354892837886392 15.0
153 1 1 0 0.4918158215417331 1.513653457281314 15.0
154 1 1 0 -0.4918158215417329 1.5136534572813143 15.0
155 1 1 0 -1.2875905370012097 0.9354892837886393 15.0
156 1 1 0 -1.5915494309189535 1.949085916259688e-16 15.0
157 1 1 0 -1.28759053700121 -0.9354892837886389 15.0
158 1 1 0 -0.49181582154173326 -1.513653457281314 15.0
159 1 1 0 0.4918158215417327 -1.5136534572813143 15.0
160 1 1 0 1.2875905370012097 -0.9354892837886395 15.0
161 1 1 0 1.5915494309189535 0.0 16.0
162 1 1 0 1.2875905370012097 0.9354892837886392 16.0
163 1 1 0 0.4918158215417331 1.513653457281314 16.0
164 1 1 0 -0.4918158215417329 1.5136534572813143 16.0
165 1 1 0 -1.2875905370012097 0.9354892837886393 16.0
166 1 1 0 -1.5915494309189535 1.949085916259688e-16 16.0
167 1 1 0 -1.28759053700121 -0.9354892837886389 16.0
168 1 1 0 -0.49181582154173326 -1.513653457281314 16.0
169 1 1 0 0.4918158215417327 -1.5136534572813143 16.0
170 1 1 0 1.2875905370012097 -0.9354892837886395 16.0
171 1 1 0 1.5915494309189535 0.0 17.0
172 1 1 0 1.2875905370012097 0.9354892837886392 17.0
173 1 1 0 0.4918158215417331 1.513653457281314 17.0
174 1 1 0 -0.4918158215417329 1.5136534572813143 17.0
175 1 1 0 -1.2875905370012097 0.9354892837886393 17.0
176 1 1 0 -1.5915494309189535 1.949085916259688e-16 17.0
177 1 1 0 -1.28759053700121 -0.9354892837886389 17.0
178 1 1 0 -0.49181582154173326 -1.513653457281314 17.0
179 1 1 0 0.4918158215417327 -1.5136534572813143 17.0
180 1 1 0 1.2875905370012097 -0.9354892837886395 17.0
181 1 1 0 1.5915494309189535 0.0 18.0
182 1 1 0 1.2875905370012097 0.9354892837886392 18.0
183 1 1 0 0.4918158215417331 1.513653457281314 18.0
184 1 1 0 -0.4918158215417329 1.5136534572813143 18.0
185 1 1 0 -1.2875905370012097 0.9354892837886393 18.0
186 1 1 0 -1.5915494309189535 1.949085916259688e-16 18.0
187 1 1 0 -1.28759053700121 -0.9354892837886389 18.0
188 1 1 0 -0.49181582154173326 -1.513653457281314 18.0
189 1 1 0 0.4918158215417327 -1.5136534572813143 18.0
190 1 1 0 1.2875905370012097 -0.9354892837886395 18.0
191 1 1 0 1.5915494309189535 0.0 19.0
192 1 1 0 1.2875905370012097 0.9354892837886392 19.0
193 1 1 0 0.4918158215417331 1.513653457281314 19.0
194 1 1 0 -0.4918158215417329 1.5136534572813143 19.0
195 1 1 0 -1.2875905370012097 0.9354892837886393 19.0
196 1 1 0 -1.5915494309189535 1.949085916259688e-16 19.0
197 1 1 0 -1.28759053700121 -0.9354892837886389 19.0
198 1 1 0 -0.49181582154173326 -1.513653457281314 19.0
199 1 1 0 0.4918158215417327 -1.5136534572813143 19.0
200 1 1 0 1.2875905370012097 -0.9354892837886395 19.0
