ITEM: TIMESTEP
0
ITEM: NUMBER OF ATOMS
200
ITEM: BOX BOUNDS pp pp pp
0.000000 100.000000
0.000000 10.000000
0.000000 20.000000
ITEM: ATOMS id type xu yu zu
1 1 1.591549 0.000000 0.000000
2 1 1.287591 0.935489 0.000000
3 1 0.491816 1.513653 0.000000
4 1 -0.491816 1.513653 0.000000
5 1 -1.287591 0.935489 0.000000
6 1 -1.591549 0.000000 0.000000
7 1 -1.287591 -0.935489 0.000000
8 1 -0.491816 -1.513653 0.000000
9 1 0.491816 -1.513653 0.000000
10 1 1.287591 -0.935489 0.000000
11 1 1.591549 0.000000 1.000000
12 1 1.287591 0.935489 1.000000
13 1 0.491816 1.513653 1.000000
14 1 -0.491816 1.513653 1.000000
15 1 -1.287591 0.935489 1.000000
16 1 -1.591549 0.000000 1.000000
17 1 -1.287591 -0.935489 1.000000
18 1 -0.491816 -1.513653 1.000000
19 1 0.491816 -1.513653 1.000000
20 1 1.287591 -0.935489 1.000000
21 1 1.591549 0.000000 2.000000
22 1 1.287591 0.935489 2.000000
23 1 0.491816 1.513653 2.000000
24 1 -0.491816 1.513653 2.000000
25 1 -1.287591 0.935489 2.000000
26 1 -1.591549 0.000000 2.000000
27 1 -1.287591 -0.935489 2.000000
28 1 -0.491816 -1.513653 2.000000
29 1 0.491816 -1.513653 2.000000
30 1 1.287591 -0.935489 2.000000
31 1 1.591549 0.000000 3.000000
32 1 1.287591 0.935489 3.000000
33 1 0.491816 1.513653 3.000000
34 1 -0.491816 1.513653 3.000000
35 1 -1.287591 0.935489 3.000000
36 1 -1.591549 0.000000 3.000000
37 1 -1.287591 -0.935489 3.000000
38 1 -0.491816 -1.513653 3.000000
39 1 0.491816 -1.513653 3.000000
40 1 1.287591 -0.935489 3.000000
41 1 1.591549 0.000000 4.000000
42 1 1.287591 0.935489 4.000000
43 1 0.491816 1.513653 4.000000
44 1 -0.491816 1.513653 4.000000
45 1 -1.287591 0.935489 4.000000
46 1 -1.591549 0.000000 4.000000
47 1 -1.287591 -0.935489 4.000000
48 1 -0.491816 -1.513653 4.000000
49 1 0.491816 -1.513653 4.000000
50 1 1.287591 -0.935489 4.000000
51 1 1.591549 0.000000 5.000000
52 1 1.287591 0.935489 5.000000
53 1 0.491816 1.513653 5.000000
54 1 -0.491816 1.513653 5.000000
55 1 -1.287591 0.935489 5.000000
56 1 -1.591549 0.000000 5.000000
57 1 -1.287591 -0.935489 5.000000
58 1 -0.491816 -1.513653 5.000000
59 1 0.491816 -1.513653 5.000000
60 1 1.287591 -0.935489 5.000000
61 1 1.591549 0.000000 6.000000
62 1 1.287591 0.935489 6.000000
63 1 0.491816 1.513653 6.000000
64 1 -0.491816 1.513653 6.000000
65 1 -1.287591 0.935489 6.000000
66 1 -1.591549 0.000000 6.000000
67 1 -1.287591 -0.935489 6.000000
68 1 -0.491816 -1.513653 6.000000
69 1 0.491816 -1.513653 6.000000
70 1 1.287591 -0.935489 6.000000
71 1 1.591549 0.000000 7.000000
72 1 1.287591 0.935489 7.000000
73 1 0.491816 1.513653 7.000000
74 1 -0.491816 1.513653 7.000000
75 1 -1.287591 0.935489 7.000000
76 1 -1.591549 0.000000 7.000000
77 1 -1.287591 -0.935489 7.000000
78 1 -0.491816 -1.513653 7.000000
79 1 0.491816 -1.513653 7.000000
80 1 1.287591 -0.935489 7.000000
81 1 1.591549 0.000000 8.000000
82 1 1.287591 0.935489 8.000000
83 1 0.491816 1.513653 8.000000
84 1 -0.491816 1.513653 8.000000
85 1 -1.287591 0.935489 8.000000
86 1 -1.591549 0.000000 8.000000
87 1 -1.287591 -0.935489 8.000000
88 1 -0.491816 -1.513653 8.000000
89 1 0.491816 -1.513653 8.000000
90 1 1.287591 -0.935489 8.000000
91 1 1.591549 0.000000 9.000000
92 1 1.287591 0.935489 9.000000
93 1 0.491816 1.513653 9.000000
94 1 -0.491816 1.513653 9.000000
95 1 -1.287591 0.935489 9.000000
96 1 -1.591549 0.000000 9.000000
97 1 -1.287591 -0.935489 9.000000
98 1 -0.491816 -1.513653 9.000000
99 1 0.491816 -1.513653 9.000000
100 1 1.287591 -0.935489 9.000000
101 1 1.591549 0.000000 10.000000
102 1 1.287591 0.935489 10.000000
103 1 0.491816 1.513653 10.000000
104 1 -0.491816 1.513653 10.000000
105 1 -1.287591 0.935489 10.000000
106 1 -1.591549 0.000000 10.000000
107 1 -1.287591 -0.935489 10.000000
108 1 -0.491816 -1.513653 10.000000
109 1 0.491816 -1.513653 10.000000
110 1 1.287591 -0.935489 10.000000
111 1 1.591549 0.000000 11.000000
112 1 1.287591 0.935489 11.000000
113 1 0.491816 1.513653 11.000000
114 1 -0.491816 1.513653 11.000000
115 1 -1.287591 0.935489 11.000000
116 1 -1.591549 0.000000 11.000000
117 1 -1.287591 -0.935489 11.000000
118 1 -0.491816 -1.513653 11.000000
119 1 0.491816 -1.513653 11.000000
120 1 1.287591 -0.935489 11.000000
121 1 1.591549 0.000000 12.000000
122 1 1.287591 0.935489 12.000000
123 1 0.491816 1.513653 12.000000
124 1 -0.491816 1.513653 12.000000
125 1 -1.287591 0.935489 12.000000
126 1 -1.591549 0.000000 12.000000
127 1 -1.287591 -0.935489 12.000000
128 1 -0.491816 -1.513653 12.000000
129 1 0.491816 -1.513653 12.000000
130 1 1.287591 -0.935489 12.000000
131 1 1.591549 0.000000 13.000000
132 1 1.287591 0.935489 13.000000
133 1 0.491816 1.513653 13.000000
134 1 -0.491816 1.513653 13.000000
135 1 -1.287591 0.935489 13.000000
136 1 -1.591549 0.000000 13.000000
137 1 -1.287591 -0.935489 13.000000
138 1 -0.491816 -1.513653 13.000000
139 1 0.491816 -1.513653 13.000000
140 1 1.287591 -0.935489 13.000000
141 1 1.591549 0.000000 14.000000
142 1 1.287591 0.935489 14.000000
143 1 0.491816 1.513653 14.000000
144 1 -0.491816 1.513653 14.000000
145 1 -1.287591 0.935489 14.000000
146 1 -1.591549 0.000000 14.000000
147 1 -1.287591 -0.935489 14.000000
148 1 -0.491816 -1.513653 14.000000
149 1 0.491816 -1.513653 14.000000
150 1 1.287591 -0.935489 14.000000
151 1 1.591549 0.000000 15.000000
152 1 1.287591 0.935489 15.000000
153 1 0.491816 1.513653 15.000000
154 1 -0.491816 1.513653 15.000000
155 1 -1.287591 0.935489 15.000000
156 1 -1.591549 0.000000 15.000000
157 1 -1.287591 -0.935489 15.000000
158 1 -0.491816 -1.513653 15.000000
159 1 0.491816 -1.513653 15.000000
160 1 1.287591 -0.935489 15.000000
161 1 1.591549 0.000000 16.000000
162 1 1.287591 0.935489 16.000000
163 1 0.491816 1.513653 16.000000
164 1 -0.491816 1.513653 16.000000
165 1 -1.287591 0.935489 16.000000
166 1 -1.591549 0.000000 16.000000
167 1 -1.287591 -0.935489 16.000000
168 1 -0.491816 -1.513653 16.000000
169 1 0.491816 -1.513653 16.000000
170 1 1.287591 -0.935489 16.000000
171 1 1.591549 0.000000 17.000000
172 1 1.287591 0.935489 17.000000
173 1 0.491816 1.513653 17.000000
174 1 -0.491816 1.513653 17.000000
175 1 -1.287591 0.935489 17.000000
176 1 -1.591549 0.000000 17.000000
177 1 -1.287591 -0.935489 17.000000
178 1 -0.491816 -1.513653 17.000000
179 1 0.491816 -1.513653 17.000000
180 1 1.287591 -0.935489 17.000000
181 1 1.591549 0.000000 18.000000
182 1 1.287591 0.935489 18.000000
183 1 0.491816 1.513653 18.000000
184 1 -0.491816 1.513653 18.000000
185 1 -1.287591 0.935489 18.000000
186 1 -1.591549 0.000000 18.000000
187 1 -1.287591 -0.935489 18.000000
188 1 -0.491816 -1.513653 18.000000
189 1 0.491816 -1.513653 18.000000
190 1 1.287591 -0.935489 18.000000
191 1 1.591549 0.000000 19.000000
192 1 1.287591 0.935489 19.000000
193 1 0.491816 1.513653 19.000000
194 1 -0.491816 1.513653 19.000000
195 1 -1.287591 0.935489 19.000000
196 1 -1.591549 0.000000 19.000000
197 1 -1.287591 -0.935489 19.000000
198 1 -0.491816 -1.513653 19.000000
199 1 0.491816 -1.513653 19.000000
200 1 1.287591 -0.935489 19.000000
