ITEM: TIMESTEP
0
ITEM: NUMBER OF ATOMS
200
ITEM: BOX BOUNDS pp pp pp
0.000000 10.000000
0.000000 20.000000
0.000000 100.000000
ITEM: ATOMS id type xu yu zu
1 1 3.183099 0.000000 1.591549
2 1 4.118588 0.000000 1.287591
3 1 4.696752 0.000000 0.491816
4 1 4.696752 0.000000 -0.491816
5 1 4.118588 0.000000 -1.287591
6 1 3.183099 0.000000 -1.591549
7 1 2.247610 0.000000 -1.287591
8 1 1.669445 0.000000 -0.491816
9 1 1.669445 0.000000 0.491816
10 1 2.247610 0.000000 1.287591
11 1 3.027307 0.983632 1.591549
12 1 3.917010 1.272714 1.287591
13 1 4.466877 1.451376 0.491816
14 1 4.466877 1.451376 -0.491816
15 1 3.917010 1.272714 -1.287591
16 1 3.027307 0.983632 -1.591549
17 1 2.137604 0.694550 -1.287591
18 1 1.587737 0.515887 -0.491816
19 1 1.587737 0.515887 0.491816
20 1 2.137604 0.694550 1.287591
21 1 2.575181 1.870979 1.591549
22 1 3.332008 2.420845 1.287591
23 1 3.799752 2.760682 0.491816
24 1 3.799752 2.760682 -0.491816
25 1 3.332008 2.420845 -1.287591
26 1 2.575181 1.870979 -1.591549
27 1 1.818354 1.321112 -1.287591
28 1 1.350610 0.981275 -0.491816
29 1 1.350610 0.981275 0.491816
30 1 1.818354 1.321112 1.287591
31 1 1.870979 2.575181 1.591549
32 1 2.420845 3.332008 1.287591
33 1 2.760682 3.799752 0.491816
34 1 2.760682 3.799752 -0.491816
35 1 2.420845 3.332008 -1.287591
36 1 1.870979 2.575181 -1.591549
37 1 1.321112 1.818354 -1.287591
38 1 0.981275 1.350610 -0.491816
39 1 0.981275 1.350610 0.491816
40 1 1.321112 1.818354 1.287591
41 1 0.983632 3.027307 1.591549
42 1 1.272714 3.917010 1.287591
43 1 1.451376 4.466877 0.491816
44 1 1.451376 4.466877 -0.491816
45 1 1.272714 3.917010 -1.287591
46 1 0.983632 3.027307 -1.591549
47 1 0.694550 2.137604 -1.287591
48 1 0.515887 1.587737 -0.491816
49 1 0.515887 1.587737 0.491816
50 1 0.694550 2.137604 1.287591
51 1 0.000000 3.183099 1.591549
52 1 0.000000 4.118588 1.287591
53 1 0.000000 4.696752 0.491816
54 1 0.000000 4.696752 -0.491816
55 1 0.000000 4.118588 -1.287591
56 1 0.000000 3.183099 -1.591549
57 1 0.000000 2.247610 -1.287591
58 1 0.000000 1.669445 -0.491816
59 1 0.000000 1.669445 0.491816
60 1 0.000000 2.247610 1.287591
61 1 -0.983632 3.027307 1.591549
62 1 -1.272714 3.917010 1.287591
63 1 -1.451376 4.466877 0.491816
64 1 -1.451376 4.466877 -0.491816
65 1 -1.272714 3.917010 -1.287591
66 1 -0.983632 3.027307 -1.591549
67 1 -0.694550 2.137604 -1.287591
68 1 -0.515887 1.587737 -0.491816
69 1 -0.515887 1.587737 0.491816
70 1 -0.694550 2.137604 1.287591
71 1 -1.870979 2.575181 1.591549
72 1 -2.420845 3.332008 1.287591
73 1 -2.760682 3.799752 0.491816
74 1 -2.760682 3.799752 -0.491816
75 1 -2.420845 3.332008 -1.287591
76 1 -1.870979 2.575181 -1.591549
77 1 -1.321112 1.818354 -1.287591
78 1 -0.981275 1.350610 -0.491816
79 1 -0.981275 1.350610 0.491816
80 1 -1.321112 1.818354 1.287591
81 1 -2.575181 1.870979 1.591549
82 1 -3.332008 2.420845 1.287591
83 1 -3.799752 2.760682 0.491816
84 1 -3.799752 2.760682 -0.491816
85 1 -3.332008 2.420845 -1.287591
86 1 -2.575181 1.870979 -1.591549
87 1 -1.818354 1.321112 -1.287591
88 1 -1.350610 0.981275 -0.491816
89 1 -1.350610 0.981275 0.491816
90 1 -1.818354 1.321112 1.287591
91 1 -3.027307 0.983632 1.591549
92 1 -3.917010 1.272714 1.287591
93 1 -4.466877 1.451376 0.491816
94 1 -4.466877 1.451376 -0.491816
95 1 -3.917010 1.272714 -1.287591
96 1 -3.027307 0.983632 -1.591549
97 1 -2.137604 0.694550 -1.287591
98 1 -1.587737 0.515887 -0.491816
99 1 -1.587737 0.515887 0.491816
100 1 -2.137604 0.694550 1.287591
101 1 -3.183099 0.000000 1.591549
102 1 -4.118588 0.000000 1.287591
103 1 -4.696752 0.000000 0.491816
104 1 -4.696752 0.000000 -0.491816
105 1 -4.118588 0.000000 -1.287591
106 1 -3.183099 0.000000 -1.591549
107 1 -2.247610 0.000000 -1.287591
108 1 -1.669445 0.000000 -0.491816
109 1 -1.669445 0.000000 0.491816
110 1 -2.247610 0.000000 1.287591
111 1 -3.027307 -0.983632 1.591549
112 1 -3.917010 -1.272714 1.287591
113 1 -4.466877 -1.451376 0.491816
114 1 -4.466877 -1.451376 -0.491816
115 1 -3.917010 -1.272714 -1.287591
116 1 -3.027307 -0.983632 -1.591549
117 1 -2.137604 -0.694550 -1.287591
118 1 -1.587737 -0.515887 -0.491816
119 1 -1.587737 -0.515887 0.491816
120 1 -2.137604 -0.694550 1.287591
121 1 -2.575181 -1.870979 1.591549
122 1 -3.332008 -2.420845 1.287591
123 1 -3.799752 -2.760682 0.491816
124 1 -3.799752 -2.760682 -0.491816
125 1 -3.332008 -2.420845 -1.287591
126 1 -2.575181 -1.870979 -1.591549
127 1 -1.818354 -1.321112 -1.287591
128 1 -1.350610 -0.981275 -0.491816
129 1 -1.350610 -0.981275 0.491816
130 1 -1.818354 -1.321112 1.287591
131 1 -1.870979 -2.575181 1.591549
132 1 -2.420845 -3.332008 1.287591
133 1 -2.760682 -3.799752 0.491816
134 1 -2.760682 -3.799752 -0.491816
135 1 -2.420845 -3.332008 -1.287591
136 1 -1.870979 -2.575181 -1.591549
137 1 -1.321112 -1.818354 -1.287591
138 1 -0.981275 -1.350610 -0.491816
139 1 -0.981275 -1.350610 0.491816
140 1 -1.321112 -1.818354 1.287591
141 1 -0.983632 -3.027307 1.591549
142 1 -1.272714 -3.917010 1.287591
143 1 -1.451376 -4.466877 0.491816
144 1 -1.451376 -4.466877 -0.491816
145 1 -1.272714 -3.917010 -1.287591
146 1 -0.983632 -3.027307 -1.591549
147 1 -0.694550 -2.137604 -1.287591
148 1 -0.515887 -1.587737 -0.491816
149 1 -0.515887 -1.587737 0.491816
150 1 -0.694550 -2.137604 1.287591
151 1 -0.000000 -3.183099 1.591549
152 1 -0.000000 -4.118588 1.287591
153 1 -0.000000 -4.696752 0.491816
154 1 -0.000000 -4.696752 -0.491816
155 1 -0.000000 -4.118588 -1.287591
156 1 -0.000000 -3.183099 -1.591549
157 1 -0.000000 -2.247610 -1.287591
158 1 -0.000000 -1.669445 -0.491816
159 1 -0.000000 -1.669445 0.491816
160 1 -0.000000 -2.247610 1.287591
161 1 0.983632 -3.027307 1.591549
162 1 1.272714 -3.917010 1.287591
163 1 1.451376 -4.466877 0.491816
164 1 1.451376 -4.466877 -0.491816
165 1 1.272714 -3.917010 -1.287591
166 1 0.983632 -3.027307 -1.591549
167 1 0.694550 -2.137604 -1.287591
168 1 0.515887 -1.587737 -0.491816
169 1 0.515887 -1.587737 0.491816
170 1 0.694550 -2.137604 1.287591
171 1 1.870979 -2.575181 1.591549
172 1 2.420845 -3.332008 1.287591
173 1 2.760682 -3.799752 0.491816
174 1 2.760682 -3.799752 -0.491816
175 1 2.420845 -3.332008 -1.287591
176 1 1.870979 -2.575181 -1.591549
177 1 1.321112 -1.818354 -1.287591
178 1 0.981275 -1.350610 -0.491816
179 1 0.981275 -1.350610 0.491816
180 1 1.321112 -1.818354 1.287591
181 1 2.575181 -1.870979 1.591549
182 1 3.332008 -2.420845 1.287591
183 1 3.799752 -2.760682 0.491816
184 1 3.799752 -2.760682 -0.491816
185 1 3.332008 -2.420845 -1.287591
186 1 2.575181 -1.870979 -1.591549
187 1 1.818354 -1.321112 -1.287591
188 1 1.350610 -0.981275 -0.491816
189 1 1.350610 -0.981275 0.491816
190 1 1.818354 -1.321112 1.287591
191 1 3.027307 -0.983632 1.591549
192 1 3.917010 -1.272714 1.287591
193 1 4.466877 -1.451376 0.491816
194 1 4.466877 -1.451376 -0.491816
195 1 3.917010 -1.272714 -1.287591
196 1 3.027307 -0.983632 -1.591549
197 1 2.137604 -0.694550 -1.287591
198 1 1.587737 -0.515887 -0.491816
199 1 1.587737 -0.515887 0.491816
200 1 2.137604 -0.694550 1.287591
