ITEM: TIMESTEP
0
ITEM: NUMBER OF ATOMS
200
ITEM: BOX BOUNDS pp pp pp
0.000000 10.000000
0.000000 20.000000
0.000000 100.000000
ITEM: ATOMS id type xu yu zu
1 1 0.000000 0.000000 3.183099
2 1 1.000000 0.000000 3.183099
3 1 2.000000 0.000000 3.183099
4 1 3.000000 0.000000 3.183099
5 1 4.000000 0.000000 3.183099
6 1 5.000000 0.000000 3.183099
7 1 6.000000 0.000000 3.183099
8 1 7.000000 0.000000 3.183099
9 1 8.000000 0.000000 3.183099
10 1 9.000000 0.000000 3.183099
11 1 0.000000 0.983632 3.027307
12 1 1.000000 0.983632 3.027307
13 1 2.000000 0.983632 3.027307
14 1 3.000000 0.983632 3.027307
15 1 4.000000 0.983632 3.027307
16 1 5.000000 0.983632 3.027307
17 1 6.000000 0.983632 3.027307
18 1 7.000000 0.983632 3.027307
19 1 8.000000 0.983632 3.027307
20 1 9.000000 0.983632 3.027307
21 1 0.000000 1.870979 2.575181
22 1 1.000000 1.870979 2.575181
23 1 2.000000 1.870979 2.575181
24 1 3.000000 1.870979 2.575181
25 1 4.000000 1.870979 2.575181
26 1 5.000000 1.870979 2.575181
27 1 6.000000 1.870979 2.575181
28 1 7.000000 1.870979 2.575181
29 1 8.000000 1.870979 2.575181
30 1 9.000000 1.870979 2.575181
31 1 0.000000 2.575181 1.870979
32 1 1.000000 2.575181 1.870979
33 1 2.000000 2.575181 1.870979
34 1 3.000000 2.575181 1.870979
35 1 4.000000 2.575181 1.870979
36 1 5.000000 2.575181 1.870979
37 1 6.000000 2.575181 1.870979
38 1 7.000000 2.575181 1.870979
39 1 8.000000 2.575181 1.870979
40 1 9.000000 2.575181 1.870979
41 1 0.000000 3.027307 0.983632
42 1 1.000000 3.027307 0.983632
43 1 2.000000 3.027307 0.983632
44 1 3.000000 3.027307 0.983632
45 1 4.000000 3.027307 0.983632
46 1 5.000000 3.027307 0.983632
47 1 6.000000 3.027307 0.983632
48 1 7.000000 3.027307 0.983632
49 1 8.000000 3.027307 0.983632
50 1 9.000000 3.027307 0.983632
51 1 0.000000 3.183099 0.000000
52 1 1.000000 3.183099 0.000000
53 1 2.000000 3.183099 0.000000
54 1 3.000000 3.183099 0.000000
55 1 4.000000 3.183099 0.000000
56 1 5.000000 3.183099 0.000000
57 1 6.000000 3.183099 0.000000
58 1 7.000000 3.183099 0.000000
59 1 8.000000 3.183099 0.000000
60 1 9.000000 3.183099 0.000000
61 1 0.000000 3.027307 -0.983632
62 1 1.000000 3.027307 -0.983632
63 1 2.000000 3.027307 -0.983632
64 1 3.000000 3.027307 -0.983632
65 1 4.000000 3.027307 -0.983632
66 1 5.000000 3.027307 -0.983632
67 1 6.000000 3.027307 -0.983632
68 1 7.000000 3.027307 -0.983632
69 1 8.000000 3.027307 -0.983632
70 1 9.000000 3.027307 -0.983632
71 1 0.000000 2.575181 -1.870979
72 1 1.000000 2.575181 -1.870979
73 1 2.000000 2.575181 -1.870979
74 1 3.000000 2.575181 -1.870979
75 1 4.000000 2.575181 -1.870979
76 1 5.000000 2.575181 -1.870979
77 1 6.000000 2.575181 -1.870979
78 1 7.000000 2.575181 -1.870979
79 1 8.000000 2.575181 -1.870979
80 1 9.000000 2.575181 -1.870979
81 1 0.000000 1.870979 -2.575181
82 1 1.000000 1.870979 -2.575181
83 1 2.000000 1.870979 -2.575181
84 1 3.000000 1.870979 -2.575181
85 1 4.000000 1.870979 -2.575181
86 1 5.000000 1.870979 -2.575181
87 1 6.000000 1.870979 -2.575181
88 1 7.000000 1.870979 -2.575181
89 1 8.000000 1.870979 -2.575181
90 1 9.000000 1.870979 -2.575181
91 1 0.000000 0.983632 -3.027307
92 1 1.000000 0.983632 -3.027307
93 1 2.000000 0.983632 -3.027307
94 1 3.000000 0.983632 -3.027307
95 1 4.000000 0.983632 -3.027307
96 1 5.000000 0.983632 -3.027307
97 1 6.000000 0.983632 -3.027307
98 1 7.000000 0.983632 -3.027307
99 1 8.000000 0.983632 -3.027307
100 1 9.000000 0.983632 -3.027307
101 1 0.000000 0.000000 -3.183099
102 1 1.000000 0.000000 -3.183099
103 1 2.000000 0.000000 -3.183099
104 1 3.000000 0.000000 -3.183099
105 1 4.000000 0.000000 -3.183099
106 1 5.000000 0.000000 -3.183099
107 1 6.000000 0.000000 -3.183099
108 1 7.000000 0.000000 -3.183099
109 1 8.000000 0.000000 -3.183099
110 1 9.000000 0.000000 -3.183099
111 1 0.000000 -0.983632 -3.027307
112 1 1.000000 -0.983632 -3.027307
113 1 2.000000 -0.983632 -3.027307
114 1 3.000000 -0.983632 -3.027307
115 1 4.000000 -0.983632 -3.027307
116 1 5.000000 -0.983632 -3.027307
117 1 6.000000 -0.983632 -3.027307
118 1 7.000000 -0.983632 -3.027307
119 1 8.000000 -0.983632 -3.027307
120 1 9.000000 -0.983632 -3.027307
121 1 0.000000 -1.870979 -2.575181
122 1 1.000000 -1.870979 -2.575181
123 1 2.000000 -1.870979 -2.575181
124 1 3.000000 -1.870979 -2.575181
125 1 4.000000 -1.870979 -2.575181
126 1 5.000000 -1.870979 -2.575181
127 1 6.000000 -1.870979 -2.575181
128 1 7.000000 -1.870979 -2.575181
129 1 8.000000 -1.870979 -2.575181
130 1 9.000000 -1.870979 -2.575181
131 1 0.000000 -2.575181 -1.870979
132 1 1.000000 -2.575181 -1.870979
133 1 2.000000 -2.575181 -1.870979
134 1 3.000000 -2.575181 -1.870979
135 1 4.000000 -2.575181 -1.870979
136 1 5.000000 -2.575181 -1.870979
137 1 6.000000 -2.575181 -1.870979
138 1 7.000000 -2.575181 -1.870979
139 1 8.000000 -2.575181 -1.870979
140 1 9.000000 -2.575181 -1.870979
141 1 0.000000 -3.027307 -0.983632
142 1 1.000000 -3.027307 -0.983632
143 1 2.000000 -3.027307 -0.983632
144 1 3.000000 -3.027307 -0.983632
145 1 4.000000 -3.027307 -0.983632
146 1 5.000000 -3.027307 -0.983632
147 1 6.000000 -3.027307 -0.983632
148 1 7.000000 -3.027307 -0.983632
149 1 8.000000 -3.027307 -0.983632
150 1 9.000000 -3.027307 -0.983632
151 1 0.000000 -3.183099 -0.000000
152 1 1.000000 -3.183099 -0.000000
153 1 2.000000 -3.183099 -0.000000
154 1 3.000000 -3.183099 -0.000000
155 1 4.000000 -3.183099 -0.000000
156 1 5.000000 -3.183099 -0.000000
157 1 6.000000 -3.183099 -0.000000
158 1 7.000000 -3.183099 -0.000000
159 1 8.000000 -3.183099 -0.000000
160 1 9.000000 -3.183099 -0.000000
161 1 0.000000 -3.027307 0.983632
162 1 1.000000 -3.027307 0.983632
163 1 2.000000 -3.027307 0.983632
164 1 3.000000 -3.027307 0.983632
165 1 4.000000 -3.027307 0.983632
166 1 5.000000 -3.027307 0.983632
167 1 6.000000 -3.027307 0.983632
168 1 7.000000 -3.027307 0.983632
169 1 8.000000 -3.027307 0.983632
170 1 9.000000 -3.027307 0.983632
171 1 0.000000 -2.575181 1.870979
172 1 1.000000 -2.575181 1.870979
173 1 2.000000 -2.575181 1.870979
174 1 3.000000 -2.575181 1.870979
175 1 4.000000 -2.575181 1.870979
176 1 5.000000 -2.575181 1.870979
177 1 6.000000 -2.575181 1.870979
178 1 7.000000 -2.575181 1.870979
179 1 8.000000 -2.575181 1.870979
180 1 9.000000 -2.575181 1.870979
181 1 0.000000 -1.870979 2.575181
182 1 1.000000 -1.870979 2.575181
183 1 2.000000 -1.870979 2.575181
184 1 3.000000 -1.870979 2.575181
185 1 4.000000 -1.870979 2.575181
186 1 5.000000 -1.870979 2.575181
187 1 6.000000 -1.870979 2.575181
188 1 7.000000 -1.870979 2.575181
189 1 8.000000 -1.870979 2.575181
190 1 9.000000 -1.870979 2.575181
191 1 0.000000 -0.983632 3.027307
192 1 1.000000 -0.983632 3.027307
193 1 2.000000 -0.983632 3.027307
194 1 3.000000 -0.983632 3.027307
195 1 4.000000 -0.983632 3.027307
196 1 5.000000 -0.983632 3.027307
197 1 6.000000 -0.983632 3.027307
198 1 7.000000 -0.983632 3.027307
199 1 8.000000 -0.983632 3.027307
200 1 9.000000 -0.983632 3.027307
