ITEM: TIMESTEP
0
ITEM: NUMBER OF ATOMS
200
ITEM: BOX BOUNDS pp pp pp
0.000000 100.000000
0.000000 10.000000
0.000000 20.000000
ITEM: ATOMS id type xu yu zu
1 1 3.183099 0.000000 0.000000
2 1 3.183099 1.000000 0.000000
3 1 3.183099 2.000000 0.000000
4 1 3.183099 3.000000 0.000000
5 1 3.183099 4.000000 0.000000
6 1 3.183099 5.000000 0.000000
7 1 3.183099 6.000000 0.000000
8 1 3.183099 7.000000 0.000000
9 1 3.183099 8.000000 0.000000
10 1 3.183099 9.000000 0.000000
11 1 3.027307 0.000000 0.983632
12 1 3.027307 1.000000 0.983632
13 1 3.027307 2.000000 0.983632
14 1 3.027307 3.000000 0.983632
15 1 3.027307 4.000000 0.983632
16 1 3.027307 5.000000 0.983632
17 1 3.027307 6.000000 0.983632
18 1 3.027307 7.000000 0.983632
19 1 3.027307 8.000000 0.983632
20 1 3.027307 9.000000 0.983632
21 1 2.575181 0.000000 1.870979
22 1 2.575181 1.000000 1.870979
23 1 2.575181 2.000000 1.870979
24 1 2.575181 3.000000 1.870979
25 1 2.575181 4.000000 1.870979
26 1 2.575181 5.000000 1.870979
27 1 2.575181 6.000000 1.870979
28 1 2.575181 7.000000 1.870979
29 1 2.575181 8.000000 1.870979
30 1 2.575181 9.000000 1.870979
31 1 1.870979 0.000000 2.575181
32 1 1.870979 1.000000 2.575181
33 1 1.870979 2.000000 2.575181
34 1 1.870979 3.000000 2.575181
35 1 1.870979 4.000000 2.575181
36 1 1.870979 5.000000 2.575181
37 1 1.870979 6.000000 2.575181
38 1 1.870979 7.000000 2.575181
39 1 1.870979 8.000000 2.575181
40 1 1.870979 9.000000 2.575181
41 1 0.983632 0.000000 3.027307
42 1 0.983632 1.000000 3.027307
43 1 0.983632 2.000000 3.027307
44 1 0.983632 3.000000 3.027307
45 1 0.983632 4.000000 3.027307
46 1 0.983632 5.000000 3.027307
47 1 0.983632 6.000000 3.027307
48 1 0.983632 7.000000 3.027307
49 1 0.983632 8.000000 3.027307
50 1 0.983632 9.000000 3.027307
51 1 0.000000 0.000000 3.183099
52 1 0.000000 1.000000 3.183099
53 1 0.000000 2.000000 3.183099
54 1 0.000000 3.000000 3.183099
55 1 0.000000 4.000000 3.183099
56 1 0.000000 5.000000 3.183099
57 1 0.000000 6.000000 3.183099
58 1 0.000000 7.000000 3.183099
59 1 0.000000 8.000000 3.183099
60 1 0.000000 9.000000 3.183099
61 1 -0.983632 0.000000 3.027307
62 1 -0.983632 1.000000 3.027307
63 1 -0.983632 2.000000 3.027307
64 1 -0.983632 3.000000 3.027307
65 1 -0.983632 4.000000 3.027307
66 1 -0.983632 5.000000 3.027307
67 1 -0.983632 6.000000 3.027307
68 1 -0.983632 7.000000 3.027307
69 1 -0.983632 8.000000 3.027307
70 1 -0.983632 9.000000 3.027307
71 1 -1.870979 0.000000 2.575181
72 1 -1.870979 1.000000 2.575181
73 1 -1.870979 2.000000 2.575181
74 1 -1.870979 3.000000 2.575181
75 1 -1.870979 4.000000 2.575181
76 1 -1.870979 5.000000 2.575181
77 1 -1.870979 6.000000 2.575181
78 1 -1.870979 7.000000 2.575181
79 1 -1.870979 8.000000 2.575181
80 1 -1.870979 9.000000 2.575181
81 1 -2.575181 0.000000 1.870979
82 1 -2.575181 1.000000 1.870979
83 1 -2.575181 2.000000 1.870979
84 1 -2.575181 3.000000 1.870979
85 1 -2.575181 4.000000 1.870979
86 1 -2.575181 5.000000 1.870979
87 1 -2.575181 6.000000 1.870979
88 1 -2.575181 7.000000 1.870979
89 1 -2.575181 8.000000 1.870979
90 1 -2.575181 9.000000 1.870979
91 1 -3.027307 0.000000 0.983632
92 1 -3.027307 1.000000 0.983632
93 1 -3.027307 2.000000 0.983632
94 1 -3.027307 3.000000 0.983632
95 1 -3.027307 4.000000 0.983632
96 1 -3.027307 5.000000 0.983632
97 1 -3.027307 6.000000 0.983632
98 1 -3.027307 7.000000 0.983632
99 1 -3.027307 8.000000 0.983632
100 1 -3.027307 9.000000 0.983632
101 1 -3.183099 0.000000 0.000000
102 1 -3.183099 1.000000 0.000000
103 1 -3.183099 2.000000 0.000000
104 1 -3.183099 3.000000 0.000000
105 1 -3.183099 4.000000 0.000000
106 1 -3.183099 5.000000 0.000000
107 1 -3.183099 6.000000 0.000000
108 1 -3.183099 7.000000 0.000000
109 1 -3.183099 8.000000 0.000000
110 1 -3.183099 9.000000 0.000000
111 1 -3.027307 0.000000 -0.983632
112 1 -3.027307 1.000000 -0.983632
113 1 -3.027307 2.000000 -0.983632
114 1 -3.027307 3.000000 -0.983632
115 1 -3.027307 4.000000 -0.983632
116 1 -3.027307 5.000000 -0.983632
117 1 -3.027307 6.000000 -0.983632
118 1 -3.027307 7.000000 -0.983632
119 1 -3.027307 8.000000 -0.983632
120 1 -3.027307 9.000000 -0.983632
121 1 -2.575181 0.000000 -1.870979
122 1 -2.575181 1.000000 -1.870979
123 1 -2.575181 2.000000 -1.870979
124 1 -2.575181 3.000000 -1.870979
125 1 -2.575181 4.000000 -1.870979
126 1 -2.575181 5.000000 -1.870979
127 1 -2.575181 6.000000 -1.870979
128 1 -2.575181 7.000000 -1.870979
129 1 -2.575181 8.000000 -1.870979
130 1 -2.575181 9.000000 -1.870979
131 1 -1.870979 0.000000 -2.575181
132 1 -1.870979 1.000000 -2.575181
133 1 -1.870979 2.000000 -2.575181
134 1 -1.870979 3.000000 -2.575181
135 1 -1.870979 4.000000 -2.575181
136 1 -1.870979 5.000000 -2.575181
137 1 -1.870979 6.000000 -2.575181
138 1 -1.870979 7.000000 -2.575181
139 1 -1.870979 8.000000 -2.575181
140 1 -1.870979 9.000000 -2.575181
141 1 -0.983632 0.000000 -3.027307
142 1 -0.983632 1.000000 -3.027307
143 1 -0.983632 2.000000 -3.027307
144 1 -0.983632 3.000000 -3.027307
145 1 -0.983632 4.000000 -3.027307
146 1 -0.983632 5.000000 -3.027307
147 1 -0.983632 6.000000 -3.027307
148 1 -0.983632 7.000000 -3.027307
149 1 -0.983632 8.000000 -3.027307
150 1 -0.983632 9.000000 -3.027307
151 1 -0.000000 0.000000 -3.183099
152 1 -0.000000 1.000000 -3.183099
153 1 -0.000000 2.000000 -3.183099
154 1 -0.000000 3.000000 -3.183099
155 1 -0.000000 4.000000 -3.183099
156 1 -0.000000 5.000000 -3.183099
157 1 -0.000000 6.000000 -3.183099
158 1 -0.000000 7.000000 -3.183099
159 1 -0.000000 8.000000 -3.183099
160 1 -0.000000 9.000000 -3.183099
161 1 0.983632 0.000000 -3.027307
162 1 0.983632 1.000000 -3.027307
163 1 0.983632 2.000000 -3.027307
164 1 0.983632 3.000000 -3.027307
165 1 0.983632 4.000000 -3.027307
166 1 0.983632 5.000000 -3.027307
167 1 0.983632 6.000000 -3.027307
168 1 0.983632 7.000000 -3.027307
169 1 0.983632 8.000000 -3.027307
170 1 0.983632 9.000000 -3.027307
171 1 1.870979 0.000000 -2.575181
172 1 1.870979 1.000000 -2.575181
173 1 1.870979 2.000000 -2.575181
174 1 1.870979 3.000000 -2.575181
175 1 1.870979 4.000000 -2.575181
176 1 1.870979 5.000000 -2.575181
177 1 1.870979 6.000000 -2.575181
178 1 1.870979 7.000000 -2.575181
179 1 1.870979 8.000000 -2.575181
180 1 1.870979 9.000000 -2.575181
181 1 2.575181 0.000000 -1.870979
182 1 2.575181 1.000000 -1.870979
183 1 2.575181 2.000000 -1.870979
184 1 2.575181 3.000000 -1.870979
185 1 2.575181 4.000000 -1.870979
186 1 2.575181 5.000000 -1.870979
187 1 2.575181 6.000000 -1.870979
188 1 2.575181 7.000000 -1.870979
189 1 2.575181 8.000000 -1.870979
190 1 2.575181 9.000000 -1.870979
191 1 3.027307 0.000000 -0.983632
192 1 3.027307 1.000000 -0.983632
193 1 3.027307 2.000000 -0.983632
194 1 3.027307 3.000000 -0.983632
195 1 3.027307 4.000000 -0.983632
196 1 3.027307 5.000000 -0.983632
197 1 3.027307 6.000000 -0.983632
198 1 3.027307 7.000000 -0.983632
199 1 3.027307 8.000000 -0.983632
200 1 3.027307 9.000000 -0.983632
