5
Lattice="2.095752591 -3.629948275 0.0 2.095752591 3.629948275 0.0 0.0 0.0 29.92852481" Properties=species:S:1:pos:R:3:forces:R:3 virial="-0.053934962 0.0 0.0 0.0 -0.053934962 0.0 0.0 0.0 -0.71327942" weight=1.0 energy=-41291.663668335 pbc="T T T"
Se       0.00000000       0.00000000       0.01754061       1.10000000       1.20000000       1.30000000
Bi       2.09574924       1.20997982       1.56318036       2.10000000       2.20000000       2.30000000
Se       2.09574924      -1.20997982       3.52013796       3.10000000       3.20000000       3.30000000
Bi       0.00000000       0.00000000       5.47710144       4.10000000       4.20000000       4.30000000
Se       2.09574924       1.20997982       7.02274370       5.10000000       5.20000000       5.30000000
