5
Properties=species:S:1:pos:R:3 lattice="2.095752591 -3.629948275 0.0 2.095752591 3.629948275 0.0 0.0 0.0 29.92852481" virial="-0.053934962 0.0 0.0 0.0 -0.053934962 0.0 0.0 0.0 -0.71327942" properties=species:S:1:pos:R:3:force:R:3 weight=1.0 energy=-41291.663668335 pbc="F F F"
Se       0.00000000       0.00000000       0.01754061
Bi       2.09574924       1.20997982       1.56318036
Se       2.09574924      -1.20997982       3.52013796
Bi       0.00000000       0.00000000       5.47710144
Se       2.09574924       1.20997982       7.02274370
