LAMMPS data file via write_data, version 2 Aug 2023, timestep = 0, units = metal

192 atoms
1 atom types

0 10.861899556810426 xlo xhi
0 16.292849335230123 ylo yhi
0 21.723799113601544 zlo zhi

Masses

1 9.999999999999999e-21

Atoms # atomic

5 1 1.3567876661960898 1.3563109692108386 1.3558378877896715 0 0 0
13 1 6.787737444601304 1.3563109692108386 1.3558378877896715 0 0 0
8 1 4.072262555398697 4.0717858584158595 1.3558378877896713 0 0 0
16 1 9.50321233380391 4.0717858584158595 1.3558378877896713 0 0 0
21 1 1.3567876661960898 6.787260747620879 1.3558378877896715 0 0 0
29 1 6.787737444601304 6.787260747620879 1.3558378877896715 0 0 0
24 1 4.072262555398697 9.502735636825902 1.3558378877896713 0 0 0
32 1 9.50321233380391 9.502735636825902 1.3558378877896713 0 0 0
37 1 1.3567876661960898 12.218210526030923 1.3558378877896713 0 0 0
45 1 6.787737444601304 12.218210526030923 1.3558378877896713 0 0 0
40 1 4.072262555398697 14.933685415235944 1.3558378877896713 0 0 0
48 1 9.50321233380391 14.933685415235944 1.3558378877896713 0 0 0
7 1 4.072262555398697 1.3563073485776531 4.071312776989863 0 0 0
10 1 5.43 2.714046603496757 2.7135753323897673 0 0 0
2 1 10.860949778405214 2.714046603496757 2.7135753323897673 -1 0 0
15 1 9.50321233380391 1.3563073485776531 4.071312776989863 0 0 0
6 1 1.3567876661960898 4.071782237782674 4.0713127769898625 0 0 0
19 1 2.7145251107973927 5.429521492701778 2.713575332389767 0 0 0
14 1 6.787737444601304 4.071782237782674 4.0713127769898625 0 0 0
27 1 8.145474889202607 5.429521492701778 2.713575332389767 0 0 0
23 1 4.072262555398697 6.787257126987693 4.071312776989863 0 0 0
26 1 5.43 8.1449963819068 2.713575332389767 0 0 0
18 1 10.860949778405214 8.1449963819068 2.713575332389767 -1 0 0
31 1 9.50321233380391 6.787257126987693 4.071312776989863 0 0 0
22 1 1.3567876661960898 9.502732016192716 4.0713127769898625 0 0 0
35 1 2.7145251107973927 10.860471271111821 2.7135753323897673 0 0 0
30 1 6.787737444601304 9.502732016192716 4.0713127769898625 0 0 0
43 1 8.145474889202607 10.860471271111821 2.7135753323897673 0 0 0
39 1 4.072262555398697 12.218206905397736 4.071312776989863 0 0 0
42 1 5.43 13.57594616031684 2.7135753323897673 0 0 0
34 1 10.860949778405214 13.57594616031684 2.7135753323897673 -1 0 0
47 1 9.50321233380391 12.218206905397736 4.071312776989863 0 0 0
3 1 2.7145251107973927 16.29142104952186 2.7135753323897673 0 -1 0
38 1 1.3567876661960898 14.933681794602759 4.071312776989863 0 0 0
11 1 8.145474889202607 16.29142104952186 2.7135753323897673 0 -1 0
46 1 6.787737444601304 14.933681794602759 4.071312776989863 0 0 0
52 1 2.7145251107973927 2.7140429828635715 5.429050221589958 0 0 0
53 1 1.3567876661960898 1.3563037279444674 6.786787666190056 0 0 0
60 1 8.145474889202607 2.7140429828635715 5.429050221589958 0 0 0
61 1 6.787737444601304 1.3563037279444674 6.786787666190056 0 0 0
56 1 4.072262555398697 4.071778617149489 6.7867876661900555 0 0 0
73 1 5.43 5.429517872068592 5.429050221589958 0 0 0
64 1 9.50321233380391 4.071778617149489 6.7867876661900555 0 0 0
65 1 10.860949778405214 5.429517872068592 5.429050221589958 -1 0 0
68 1 2.7145251107973927 8.144992761273613 5.429050221589959 0 0 0
69 1 1.3567876661960898 6.787253506354507 6.786787666190056 0 0 0
76 1 8.145474889202607 8.144992761273613 5.429050221589959 0 0 0
77 1 6.787737444601304 6.787253506354507 6.786787666190056 0 0 0
72 1 4.072262555398697 9.502728395559531 6.7867876661900555 0 0 0
89 1 5.43 10.860467650478636 5.429050221589958 0 0 0
80 1 9.50321233380391 9.502728395559531 6.7867876661900555 0 0 0
81 1 10.860949778405214 10.860467650478636 5.429050221589958 -1 0 0
84 1 2.7145251107973927 13.575942539683655 5.429050221589959 0 0 0
85 1 1.3567876661960898 12.21820328476455 6.7867876661900555 0 0 0
92 1 8.145474889202607 13.575942539683655 5.429050221589959 0 0 0
93 1 6.787737444601304 12.21820328476455 6.7867876661900555 0 0 0
57 1 5.43 16.29141742888867 5.429050221589959 0 -1 0
88 1 4.072262555398697 14.933678173969573 6.786787666190056 0 0 0
49 1 10.860949778405214 16.29141742888867 5.429050221589959 -1 -1 0
96 1 9.50321233380391 14.933678173969573 6.786787666190056 0 0 0
55 1 4.072262555398697 1.356300107311282 9.502262555390248 0 0 0
58 1 5.43 2.714039362230386 8.144525110790152 0 0 0
50 1 10.860949778405214 2.714039362230386 8.144525110790152 -1 0 0
63 1 9.50321233380391 1.356300107311282 9.502262555390248 0 0 0
54 1 1.3567876661960898 4.071774996516303 9.502262555390248 0 0 0
67 1 2.7145251107973927 5.429514251435407 8.144525110790154 0 0 0
62 1 6.787737444601304 4.071774996516303 9.502262555390248 0 0 0
75 1 8.145474889202607 5.429514251435407 8.144525110790154 0 0 0
71 1 4.072262555398697 6.787249885721322 9.502262555390248 0 0 0
74 1 5.43 8.144989140640428 8.144525110790154 0 0 0
66 1 10.860949778405214 8.144989140640428 8.144525110790154 -1 0 0
79 1 9.50321233380391 6.787249885721322 9.502262555390248 0 0 0
70 1 1.3567876661960898 9.502724774926344 9.502262555390248 0 0 0
83 1 2.7145251107973927 10.860464029845451 8.144525110790154 0 0 0
78 1 6.787737444601304 9.502724774926344 9.502262555390248 0 0 0
91 1 8.145474889202607 10.860464029845451 8.144525110790154 0 0 0
87 1 4.072262555398697 12.218199664131365 9.502262555390248 0 0 0
90 1 5.43 13.575938919050468 8.144525110790152 0 0 0
82 1 10.860949778405214 13.575938919050468 8.144525110790152 -1 0 0
95 1 9.50321233380391 12.218199664131365 9.502262555390248 0 0 0
51 1 2.7145251107973927 16.291413808255488 8.144525110790152 0 -1 0
86 1 1.3567876661960898 14.933674553336388 9.502262555390248 0 0 0
59 1 8.145474889202607 16.291413808255488 8.144525110790152 0 -1 0
94 1 6.787737444601304 14.933674553336388 9.502262555390248 0 0 0
100 1 2.7145251107973927 2.7140357415972005 10.859999999990343 0 0 0
108 1 8.145474889202607 2.7140357415972005 10.859999999990343 0 0 0
121 1 5.43 5.429510630802222 10.859999999990345 0 0 0
113 1 10.860949778405214 5.429510630802222 10.859999999990345 -1 0 0
116 1 2.7145251107973927 8.144985520007243 10.859999999990345 0 0 0
124 1 8.145474889202607 8.144985520007243 10.859999999990345 0 0 0
137 1 5.43 10.860460409212266 10.859999999990345 0 0 0
129 1 10.860949778405214 10.860460409212266 10.859999999990345 -1 0 0
132 1 2.7145251107973927 13.575935298417283 10.859999999990343 0 0 0
140 1 8.145474889202607 13.575935298417283 10.859999999990343 0 0 0
105 1 5.43 16.2914101876223 10.859999999990343 0 -1 0
97 1 10.860949778405214 16.2914101876223 10.859999999990343 -1 -1 0
101 1 1.3567876661960898 1.3562964866780962 12.217737444590442 0 0 0
106 1 5.43 2.714032120964015 13.575474889190538 0 0 0
109 1 6.787737444601304 1.3562964866780962 12.217737444590442 0 0 0
98 1 10.860949778405214 2.714032120964015 13.575474889190538 -1 0 0
115 1 2.7145251107973927 5.4295070101690355 13.575474889190538 0 0 0
104 1 4.072262555398697 4.0717713758831175 12.217737444590442 0 0 0
123 1 8.145474889202607 5.4295070101690355 13.575474889190538 0 0 0
112 1 9.50321233380391 4.0717713758831175 12.217737444590442 0 0 0
117 1 1.3567876661960898 6.787246265088136 12.217737444590442 0 0 0
122 1 5.43 8.144981899374057 13.57547488919054 0 0 0
125 1 6.787737444601304 6.787246265088136 12.217737444590442 0 0 0
114 1 10.860949778405214 8.144981899374057 13.57547488919054 -1 0 0
131 1 2.7145251107973927 10.860456788579079 13.57547488919054 0 0 0
120 1 4.072262555398697 9.502721154293159 12.217737444590442 0 0 0
139 1 8.145474889202607 10.860456788579079 13.57547488919054 0 0 0
128 1 9.50321233380391 9.502721154293159 12.217737444590442 0 0 0
133 1 1.3567876661960898 12.21819604349818 12.217737444590442 0 0 0
138 1 5.43 13.575931677784098 13.575474889190538 0 0 0
141 1 6.787737444601304 12.21819604349818 12.217737444590442 0 0 0
130 1 10.860949778405214 13.575931677784098 13.575474889190538 -1 0 0
99 1 2.7145251107973927 16.291406566989117 13.575474889190538 0 -1 0
136 1 4.072262555398697 14.933670932703203 12.217737444590442 0 0 0
107 1 8.145474889202607 16.291406566989117 13.575474889190538 0 -1 0
144 1 9.50321233380391 14.933670932703203 12.217737444590442 0 0 0
148 1 2.7145251107973927 2.714028500330829 16.29094977839073 0 0 0
103 1 4.072262555398697 1.3562928660449107 14.93321233379063 0 0 0
156 1 8.145474889202607 2.714028500330829 16.29094977839073 0 0 0
111 1 9.50321233380391 1.3562928660449107 14.93321233379063 0 0 0
102 1 1.3567876661960898 4.071767755249931 14.93321233379063 0 0 0
169 1 5.43 5.42950338953585 16.290949778390733 0 0 0
110 1 6.787737444601304 4.071767755249931 14.93321233379063 0 0 0
161 1 10.860949778405214 5.42950338953585 16.290949778390733 -1 0 0
164 1 2.7145251107973927 8.144978278740872 16.29094977839073 0 0 0
119 1 4.072262555398697 6.787242644454951 14.933212333790628 0 0 0
172 1 8.145474889202607 8.144978278740872 16.29094977839073 0 0 0
127 1 9.50321233380391 6.787242644454951 14.933212333790628 0 0 0
118 1 1.3567876661960898 9.502717533659974 14.93321233379063 0 0 0
185 1 5.43 10.860453167945893 16.29094977839073 0 0 0
126 1 6.787737444601304 9.502717533659974 14.93321233379063 0 0 0
177 1 10.860949778405214 10.860453167945893 16.29094977839073 -1 0 0
180 1 2.7145251107973927 13.575928057150913 16.29094977839073 0 0 0
135 1 4.072262555398697 12.218192422864995 14.93321233379063 0 0 0
188 1 8.145474889202607 13.575928057150913 16.29094977839073 0 0 0
143 1 9.50321233380391 12.218192422864995 14.93321233379063 0 0 0
134 1 1.3567876661960898 14.933667312070016 14.93321233379063 0 0 0
153 1 5.43 16.29140294635593 16.29094977839073 0 -1 0
142 1 6.787737444601304 14.933667312070016 14.93321233379063 0 0 0
145 1 10.860949778405214 16.29140294635593 16.29094977839073 -1 -1 0
149 1 1.3567876661960898 1.356289245411725 17.648687222990826 0 0 0
154 1 5.43 2.7140248796976434 19.006424667590924 0 0 0
157 1 6.787737444601304 1.356289245411725 17.648687222990826 0 0 0
146 1 10.860949778405214 2.7140248796976434 19.006424667590924 -1 0 0
163 1 2.7145251107973927 5.429499768902665 19.006424667590924 0 0 0
152 1 4.072262555398697 4.071764134616746 17.648687222990823 0 0 0
171 1 8.145474889202607 5.429499768902665 19.006424667590924 0 0 0
160 1 9.50321233380391 4.071764134616746 17.648687222990823 0 0 0
165 1 1.3567876661960898 6.787239023821765 17.648687222990826 0 0 0
170 1 5.43 8.144974658107685 19.006424667590924 0 0 0
173 1 6.787737444601304 6.787239023821765 17.648687222990826 0 0 0
162 1 10.860949778405214 8.144974658107685 19.006424667590924 -1 0 0
179 1 2.7145251107973927 10.860449547312708 19.00642466759092 0 0 0
168 1 4.072262555398697 9.502713913026788 17.648687222990823 0 0 0
187 1 8.145474889202607 10.860449547312708 19.00642466759092 0 0 0
176 1 9.50321233380391 9.502713913026788 17.648687222990823 0 0 0
181 1 1.3567876661960898 12.218188802231808 17.648687222990826 0 0 0
186 1 5.43 13.575924436517727 19.006424667590924 0 0 0
189 1 6.787737444601304 12.218188802231808 17.648687222990826 0 0 0
178 1 10.860949778405214 13.575924436517727 19.006424667590924 -1 0 0
147 1 2.7145251107973927 16.291399325722743 19.006424667590924 0 -1 0
184 1 4.072262555398697 14.93366369143683 17.648687222990823 0 0 0
155 1 8.145474889202607 16.291399325722743 19.006424667590924 0 -1 0
192 1 9.50321233380391 14.93366369143683 17.648687222990823 0 0 0
4 1 2.7145251107973927 2.714050224129943 21.72189955679112 0 0 -1
151 1 4.072262555398697 1.3562856247785395 20.364162112191014 0 0 0
12 1 8.145474889202607 2.714050224129943 21.72189955679112 0 0 -1
159 1 9.50321233380391 1.3562856247785395 20.364162112191014 0 0 0
150 1 1.3567876661960898 4.071760513983561 20.364162112191014 0 0 0
25 1 5.43 5.429525113334964 21.72189955679112 0 0 -1
158 1 6.787737444601304 4.071760513983561 20.364162112191014 0 0 0
17 1 10.860949778405214 5.429525113334964 21.72189955679112 -1 0 -1
20 1 2.7145251107973927 8.145000002539986 21.72189955679112 0 0 -1
167 1 4.072262555398697 6.787235403188579 20.364162112191014 0 0 0
28 1 8.145474889202607 8.145000002539986 21.72189955679112 0 0 -1
175 1 9.50321233380391 6.787235403188579 20.364162112191014 0 0 0
166 1 1.3567876661960898 9.502710292393603 20.364162112191014 0 0 0
41 1 5.43 10.860474891745007 21.72189955679112 0 0 -1
174 1 6.787737444601304 9.502710292393603 20.364162112191014 0 0 0
33 1 10.860949778405214 10.860474891745007 21.72189955679112 -1 0 -1
36 1 2.7145251107973927 13.575949780950026 21.72189955679112 0 0 -1
183 1 4.072262555398697 12.218185181598622 20.364162112191014 0 0 0
44 1 8.145474889202607 13.575949780950026 21.72189955679112 0 0 -1
191 1 9.50321233380391 12.218185181598622 20.364162112191014 0 0 0
182 1 1.3567876661960898 14.933660070803645 20.364162112191014 0 0 0
9 1 5.43 16.291424670155045 21.72189955679112 0 -1 -1
190 1 6.787737444601304 14.933660070803645 20.364162112191014 0 0 0
1 1 10.860949778405214 16.291424670155045 21.72189955679112 -1 -1 -1

Velocities

5 0 0 0
13 0 0 0
8 0 0 0
16 0 0 0
21 0 0 0
29 0 0 0
24 0 0 0
32 0 0 0
37 0 0 0
45 0 0 0
40 0 0 0
48 0 0 0
7 0 0 0
10 0 0 0
2 0 0 0
15 0 0 0
6 0 0 0
19 0 0 0
14 0 0 0
27 0 0 0
23 0 0 0
26 0 0 0
18 0 0 0
31 0 0 0
22 0 0 0
35 0 0 0
30 0 0 0
43 0 0 0
39 0 0 0
42 0 0 0
34 0 0 0
47 0 0 0
3 0 0 0
38 0 0 0
11 0 0 0
46 0 0 0
52 0 0 0
53 0 0 0
60 0 0 0
61 0 0 0
56 0 0 0
73 0 0 0
64 0 0 0
65 0 0 0
68 0 0 0
69 0 0 0
76 0 0 0
77 0 0 0
72 0 0 0
89 0 0 0
80 0 0 0
81 0 0 0
84 0 0 0
85 0 0 0
92 0 0 0
93 0 0 0
57 0 0 0
88 0 0 0
49 0 0 0
96 0 0 0
55 0 0 0
58 0 0 0
50 0 0 0
63 0 0 0
54 0 0 0
67 0 0 0
62 0 0 0
75 0 0 0
71 0 0 0
74 0 0 0
66 0 0 0
79 0 0 0
70 0 0 0
83 0 0 0
78 0 0 0
91 0 0 0
87 0 0 0
90 0 0 0
82 0 0 0
95 0 0 0
51 0 0 0
86 0 0 0
59 0 0 0
94 0 0 0
100 0 0 0
108 0 0 0
121 0 0 0
113 0 0 0
116 0 0 0
124 0 0 0
137 0 0 0
129 0 0 0
132 0 0 0
140 0 0 0
105 0 0 0
97 0 0 0
101 0 0 0
106 0 0 0
109 0 0 0
98 0 0 0
115 0 0 0
104 0 0 0
123 0 0 0
112 0 0 0
117 0 0 0
122 0 0 0
125 0 0 0
114 0 0 0
131 0 0 0
120 0 0 0
139 0 0 0
128 0 0 0
133 0 0 0
138 0 0 0
141 0 0 0
130 0 0 0
99 0 0 0
136 0 0 0
107 0 0 0
144 0 0 0
148 0 0 0
103 0 0 0
156 0 0 0
111 0 0 0
102 0 0 0
169 0 0 0
110 0 0 0
161 0 0 0
164 0 0 0
119 0 0 0
172 0 0 0
127 0 0 0
118 0 0 0
185 0 0 0
126 0 0 0
177 0 0 0
180 0 0 0
135 0 0 0
188 0 0 0
143 0 0 0
134 0 0 0
153 0 0 0
142 0 0 0
145 0 0 0
149 0 0 0
154 0 0 0
157 0 0 0
146 0 0 0
163 0 0 0
152 0 0 0
171 0 0 0
160 0 0 0
165 0 0 0
170 0 0 0
173 0 0 0
162 0 0 0
179 0 0 0
168 0 0 0
187 0 0 0
176 0 0 0
181 0 0 0
186 0 0 0
189 0 0 0
178 0 0 0
147 0 0 0
184 0 0 0
155 0 0 0
192 0 0 0
4 0 0 0
151 0 0 0
12 0 0 0
159 0 0 0
150 0 0 0
25 0 0 0
158 0 0 0
17 0 0 0
20 0 0 0
167 0 0 0
28 0 0 0
175 0 0 0
166 0 0 0
41 0 0 0
174 0 0 0
33 0 0 0
36 0 0 0
183 0 0 0
44 0 0 0
191 0 0 0
182 0 0 0
9 0 0 0
190 0 0 0
1 0 0 0
