(written by ASE)

192 atoms
1 atom types

0.0      10.861899556832151  xlo xhi
0.0      16.292849335215642  ylo yhi
0.0      21.723799113577403  zlo zhi

Atoms # atomic

     1   1 -0.00094978220432884197  -0.0014246676078202446  -0.0018995568104228191
     2   1 -0.00094435125455044763      2.7140502215947873      2.7135753323867524
     3   1      2.7145305379534861  -0.0014246676078202454      2.7135753323867524
     4   1      2.7145251070037077      2.7140502215947873  -0.0018995568104228191
     5   1      1.3567903778745789      1.3563127769934833      1.3558378877881652
     6   1      1.3567958088243572      4.0717876661960899      4.0713127769853399
     7   1      4.0722706980323959      1.3563127769934833      4.0713127769853408
     8   1      4.0722652670826172      4.0717876661960899      1.3558378877881652
     9   1      5.4299999962117456  -0.0014246676078202452  -0.0018995568104228191
    10   1      5.4300054271615235      2.7140502215947873      2.7135753323867529
    11   1      8.1454803163695626  -0.0014246676078202463      2.7135753323867529
    12   1      8.1454748854197838      2.7140502215947873  -0.0018995568104228191
    13   1      6.7877401562906545      1.3563127769934833      1.3558378877881652
    14   1      6.7877455872404333      4.0717876661960899      4.0713127769853399
    15   1      9.5032204764484707      1.3563127769934833      4.0713127769853408
    16   1      9.5032150454986919      4.0717876661960899      1.3558378877881652
    17   1 -0.00094978220432884197      5.4295251107973943  -0.0018995568104228191
    18   1 -0.00094435125455044763      8.1450000000000014      2.7135753323867524
    19   1      2.7145305379534861      5.4295251107973943      2.7135753323867524
    20   1      2.7145251070037077      8.1450000000000014  -0.0018995568104228191
    21   1      1.3567903778745789      6.7872625553986952      1.3558378877881652
    22   1      1.3567958088243572      9.5027374446013031      4.0713127769853399
    23   1      4.0722706980323959      6.7872625553986952      4.0713127769853408
    24   1      4.0722652670826172      9.5027374446013031      1.3558378877881652
    25   1      5.4299999962117456      5.4295251107973943  -0.0018995568104228191
    26   1      5.4300054271615235      8.1450000000000014      2.7135753323867529
    27   1      8.1454803163695626      5.4295251107973943      2.7135753323867529
    28   1      8.1454748854197838      8.1450000000000014  -0.0018995568104228191
    29   1      6.7877401562906545      6.7872625553986952      1.3558378877881652
    30   1      6.7877455872404333      9.5027374446013031      4.0713127769853399
    31   1      9.5032204764484707      6.7872625553986952      4.0713127769853408
    32   1      9.5032150454986919      9.5027374446013031      1.3558378877881652
    33   1 -0.00094978220432884197       10.86047488920261  -0.0018995568104228191
    34   1 -0.00094435125455044763      13.575949778405214      2.7135753323867524
    35   1      2.7145305379534861       10.86047488920261      2.7135753323867524
    36   1      2.7145251070037077      13.575949778405214  -0.0018995568104228191
    37   1      1.3567903778745789       12.21821233380391      1.3558378877881652
    38   1      1.3567958088243572      14.933687223006519      4.0713127769853399
    39   1      4.0722706980323959       12.21821233380391      4.0713127769853408
    40   1      4.0722652670826172      14.933687223006519      1.3558378877881652
    41   1      5.4299999962117456       10.86047488920261  -0.0018995568104228191
    42   1      5.4300054271615235      13.575949778405214      2.7135753323867529
    43   1      8.1454803163695626       10.86047488920261      2.7135753323867529
    44   1      8.1454748854197838      13.575949778405214  -0.0018995568104228191
    45   1      6.7877401562906545       12.21821233380391      1.3558378877881652
    46   1      6.7877455872404333      14.933687223006519      4.0713127769853399
    47   1      9.5032204764484707       12.21821233380391      4.0713127769853408
    48   1      9.5032150454986919      14.933687223006519      1.3558378877881652
    49   1 -0.00093892030477205329  -0.0014246676078202463      5.4290502215839274
    50   1 -0.00093348935499365895      2.7140502215947873      8.1445251107811067
    51   1      2.7145413998530428  -0.0014246676078202456       8.144525110781105
    52   1      2.7145359689032644      2.7140502215947873      5.4290502215839274
    53   1      1.3568012397741358      1.3563127769934833      6.7867876661825166
    54   1      1.3568066707239141      4.0717876661960899      9.5022625553796924
    55   1      4.0722815599319526      1.3563127769934833      9.5022625553796924
    56   1      4.0722761289821738      4.0717876661960899      6.7867876661825166
    57   1      5.4300108581113022  -0.0014246676078202456      5.4290502215839274
    58   1       5.430016289061081      2.7140502215947873       8.144525110781105
    59   1      8.1454911782691184  -0.0014246676078202459       8.144525110781105
    60   1      8.1454857473193414      2.7140502215947873      5.4290502215839274
    61   1      6.7877510181902112      1.3563127769934833      6.7867876661825166
    62   1        6.78775644913999      4.0717876661960899      9.5022625553796924
    63   1      9.5032313383480265      1.3563127769934833      9.5022625553796907
    64   1      9.5032259073982477      4.0717876661960899      6.7867876661825166
    65   1 -0.00093892030477205329      5.4295251107973943      5.4290502215839274
    66   1 -0.00093348935499365895      8.1450000000000014      8.1445251107811067
    67   1      2.7145413998530428      5.4295251107973943       8.144525110781105
    68   1      2.7145359689032644      8.1450000000000014      5.4290502215839274
    69   1      1.3568012397741358      6.7872625553986952      6.7867876661825166
    70   1      1.3568066707239141      9.5027374446013031      9.5022625553796924
    71   1      4.0722815599319526      6.7872625553986952      9.5022625553796924
    72   1      4.0722761289821738      9.5027374446013031      6.7867876661825166
    73   1      5.4300108581113022      5.4295251107973943      5.4290502215839274
    74   1       5.430016289061081      8.1450000000000014       8.144525110781105
    75   1      8.1454911782691184      5.4295251107973943       8.144525110781105
    76   1      8.1454857473193414      8.1450000000000014      5.4290502215839274
    77   1      6.7877510181902112      6.7872625553986952      6.7867876661825166
    78   1        6.78775644913999      9.5027374446013031      9.5022625553796924
    79   1      9.5032313383480265      6.7872625553986952      9.5022625553796907
    80   1      9.5032259073982477      9.5027374446013031      6.7867876661825166
    81   1 -0.00093892030477205329       10.86047488920261      5.4290502215839274
    82   1 -0.00093348935499365895      13.575949778405214      8.1445251107811067
    83   1      2.7145413998530428       10.86047488920261       8.144525110781105
    84   1      2.7145359689032644      13.575949778405214      5.4290502215839274
    85   1      1.3568012397741358       12.21821233380391      6.7867876661825166
    86   1      1.3568066707239141      14.933687223006519      9.5022625553796924
    87   1      4.0722815599319526       12.21821233380391      9.5022625553796924
    88   1      4.0722761289821738      14.933687223006519      6.7867876661825166
    89   1      5.4300108581113022       10.86047488920261      5.4290502215839274
    90   1       5.430016289061081      13.575949778405214       8.144525110781105
    91   1      8.1454911782691184       10.86047488920261       8.144525110781105
    92   1      8.1454857473193414      13.575949778405214      5.4290502215839274
    93   1      6.7877510181902112       12.21821233380391      6.7867876661825166
    94   1        6.78775644913999      14.933687223006519      9.5022625553796924
    95   1      9.5032313383480265       12.21821233380391      9.5022625553796907
    96   1      9.5032259073982477      14.933687223006519      6.7867876661825166
    97   1 -0.00092805840521526461  -0.0014246676078202463       10.85999999997828
    98   1 -0.00092262745543687016      2.7140502215947873      13.575474889175458
    99   1      2.7145522617525999  -0.0014246676078202463      13.575474889175457
   100   1      2.7145468308028211      2.7140502215947873       10.85999999997828
   101   1      1.3568121016736925      1.3563127769934833      12.217737444576869
   102   1      1.3568175326234708      4.0717876661960899      14.933212333774041
   103   1      4.0722924218315093      1.3563127769934833      14.933212333774041
   104   1      4.0722869908817305      4.0717876661960899      12.217737444576871
   105   1      5.4300217200108589  -0.0014246676078202461       10.85999999997828
   106   1      5.4300271509606377      2.7140502215947873      13.575474889175458
   107   1       8.145502040168676  -0.0014246676078202461      13.575474889175458
   108   1      8.1454966092188972      2.7140502215947873       10.85999999997828
   109   1      6.7877618800897688      1.3563127769934833      12.217737444576871
   110   1      6.7877673110395467      4.0717876661960899      14.933212333774042
   111   1       9.503242200247584      1.3563127769934833      14.933212333774041
   112   1      9.5032367692978053      4.0717876661960899      12.217737444576869
   113   1 -0.00092805840521526461      5.4295251107973943       10.85999999997828
   114   1 -0.00092262745543687016      8.1450000000000014      13.575474889175458
   115   1      2.7145522617525999      5.4295251107973943      13.575474889175457
   116   1      2.7145468308028211      8.1450000000000014       10.85999999997828
   117   1      1.3568121016736925      6.7872625553986952      12.217737444576869
   118   1      1.3568175326234708      9.5027374446013031      14.933212333774041
   119   1      4.0722924218315093      6.7872625553986952      14.933212333774041
   120   1      4.0722869908817305      9.5027374446013031      12.217737444576871
   121   1      5.4300217200108589      5.4295251107973943       10.85999999997828
   122   1      5.4300271509606377      8.1450000000000014      13.575474889175458
   123   1       8.145502040168676      5.4295251107973943      13.575474889175458
   124   1      8.1454966092188972      8.1450000000000014       10.85999999997828
   125   1      6.7877618800897688      6.7872625553986952      12.217737444576871
   126   1      6.7877673110395467      9.5027374446013031      14.933212333774042
   127   1       9.503242200247584      6.7872625553986952      14.933212333774041
   128   1      9.5032367692978053      9.5027374446013031      12.217737444576869
   129   1 -0.00092805840521526461       10.86047488920261       10.85999999997828
   130   1 -0.00092262745543687016      13.575949778405214      13.575474889175458
   131   1      2.7145522617525999       10.86047488920261      13.575474889175457
   132   1      2.7145468308028211      13.575949778405214       10.85999999997828
   133   1      1.3568121016736925       12.21821233380391      12.217737444576869
   134   1      1.3568175326234708      14.933687223006519      14.933212333774041
   135   1      4.0722924218315093       12.21821233380391      14.933212333774041
   136   1      4.0722869908817305      14.933687223006519      12.217737444576871
   137   1      5.4300217200108589       10.86047488920261       10.85999999997828
   138   1      5.4300271509606377      13.575949778405214      13.575474889175458
   139   1       8.145502040168676       10.86047488920261      13.575474889175458
   140   1      8.1454966092188972      13.575949778405214       10.85999999997828
   141   1      6.7877618800897688       12.21821233380391      12.217737444576871
   142   1      6.7877673110395467      14.933687223006519      14.933212333774042
   143   1       9.503242200247584       12.21821233380391      14.933212333774041
   144   1      9.5032367692978053      14.933687223006519      12.217737444576869
   145   1 -0.00091719650565847582  -0.0014246676078202459      16.290949778372632
   146   1 -0.00091176555588008148      2.7140502215947873      19.006424667569807
   147   1      2.7145631236521566  -0.0014246676078202465       19.00642466756981
   148   1      2.7145576927023782      2.7140502215947873      16.290949778372635
   149   1      1.3568229635732494      1.3563127769934833      17.648687222971216
   150   1      1.3568283945230277      4.0717876661960899       20.36416211216839
   151   1       4.072303283731066      1.3563127769934833       20.36416211216839
   152   1      4.0722978527812872      4.0717876661960899      17.648687222971219
   153   1      5.4300325819104156  -0.0014246676078202463      16.290949778372632
   154   1      5.4300380128601944      2.7140502215947873      19.006424667569807
   155   1      8.1455129020682335  -0.0014246676078202456      19.006424667569807
   156   1      8.1455074711184547      2.7140502215947873      16.290949778372632
   157   1      6.7877727419893255      1.3563127769934833      17.648687222971219
   158   1      6.7877781729391033      4.0717876661960899       20.36416211216839
   159   1      9.5032530621471398      1.3563127769934833      20.364162112168394
   160   1      9.5032476311973628      4.0717876661960899      17.648687222971219
   161   1 -0.00091719650565847582      5.4295251107973943      16.290949778372632
   162   1 -0.00091176555588008148      8.1450000000000014      19.006424667569807
   163   1      2.7145631236521566      5.4295251107973943       19.00642466756981
   164   1      2.7145576927023782      8.1450000000000014      16.290949778372635
   165   1      1.3568229635732494      6.7872625553986952      17.648687222971216
   166   1      1.3568283945230277      9.5027374446013031       20.36416211216839
   167   1       4.072303283731066      6.7872625553986952       20.36416211216839
   168   1      4.0722978527812872      9.5027374446013031      17.648687222971219
   169   1      5.4300325819104156      5.4295251107973943      16.290949778372632
   170   1      5.4300380128601944      8.1450000000000014      19.006424667569807
   171   1      8.1455129020682335      5.4295251107973943      19.006424667569807
   172   1      8.1455074711184547      8.1450000000000014      16.290949778372632
   173   1      6.7877727419893255      6.7872625553986952      17.648687222971219
   174   1      6.7877781729391033      9.5027374446013031       20.36416211216839
   175   1      9.5032530621471398      6.7872625553986952      20.364162112168394
   176   1      9.5032476311973628      9.5027374446013031      17.648687222971219
   177   1 -0.00091719650565847582       10.86047488920261      16.290949778372632
   178   1 -0.00091176555588008148      13.575949778405214      19.006424667569807
   179   1      2.7145631236521566       10.86047488920261       19.00642466756981
   180   1      2.7145576927023782      13.575949778405214      16.290949778372635
   181   1      1.3568229635732494       12.21821233380391      17.648687222971216
   182   1      1.3568283945230277      14.933687223006519       20.36416211216839
   183   1       4.072303283731066       12.21821233380391       20.36416211216839
   184   1      4.0722978527812872      14.933687223006519      17.648687222971219
   185   1      5.4300325819104156       10.86047488920261      16.290949778372632
   186   1      5.4300380128601944      13.575949778405214      19.006424667569807
   187   1      8.1455129020682335       10.86047488920261      19.006424667569807
   188   1      8.1455074711184547      13.575949778405214      16.290949778372632
   189   1      6.7877727419893255       12.21821233380391      17.648687222971219
   190   1      6.7877781729391033      14.933687223006519       20.36416211216839
   191   1      9.5032530621471398       12.21821233380391      20.364162112168394
   192   1      9.5032476311973628      14.933687223006519      17.648687222971219


Velocities

     1                       0                       0                       0
     2                       0                       0                       0
     3                       0                       0                       0
     4                       0                       0                       0
     5                       0                       0                       0
     6                       0                       0                       0
     7                       0                       0                       0
     8                       0                       0                       0
     9                       0                       0                       0
    10                       0                       0                       0
    11                       0                       0                       0
    12                       0                       0                       0
    13                       0                       0                       0
    14                       0                       0                       0
    15                       0                       0                       0
    16                       0                       0                       0
    17                       0                       0                       0
    18                       0                       0                       0
    19                       0                       0                       0
    20                       0                       0                       0
    21                       0                       0                       0
    22                       0                       0                       0
    23                       0                       0                       0
    24                       0                       0                       0
    25                       0                       0                       0
    26                       0                       0                       0
    27                       0                       0                       0
    28                       0                       0                       0
    29                       0                       0                       0
    30                       0                       0                       0
    31                       0                       0                       0
    32                       0                       0                       0
    33                       0                       0                       0
    34                       0                       0                       0
    35                       0                       0                       0
    36                       0                       0                       0
    37                       0                       0                       0
    38                       0                       0                       0
    39                       0                       0                       0
    40                       0                       0                       0
    41                       0                       0                       0
    42                       0                       0                       0
    43                       0                       0                       0
    44                       0                       0                       0
    45                       0                       0                       0
    46                       0                       0                       0
    47                       0                       0                       0
    48                       0                       0                       0
    49                       0                       0                       0
    50                       0                       0                       0
    51                       0                       0                       0
    52                       0                       0                       0
    53                       0                       0                       0
    54                       0                       0                       0
    55                       0                       0                       0
    56                       0                       0                       0
    57                       0                       0                       0
    58                       0                       0                       0
    59                       0                       0                       0
    60                       0                       0                       0
    61                       0                       0                       0
    62                       0                       0                       0
    63                       0                       0                       0
    64                       0                       0                       0
    65                       0                       0                       0
    66                       0                       0                       0
    67                       0                       0                       0
    68                       0                       0                       0
    69                       0                       0                       0
    70                       0                       0                       0
    71                       0                       0                       0
    72                       0                       0                       0
    73                       0                       0                       0
    74                       0                       0                       0
    75                       0                       0                       0
    76                       0                       0                       0
    77                       0                       0                       0
    78                       0                       0                       0
    79                       0                       0                       0
    80                       0                       0                       0
    81                       0                       0                       0
    82                       0                       0                       0
    83                       0                       0                       0
    84                       0                       0                       0
    85                       0                       0                       0
    86                       0                       0                       0
    87                       0                       0                       0
    88                       0                       0                       0
    89                       0                       0                       0
    90                       0                       0                       0
    91                       0                       0                       0
    92                       0                       0                       0
    93                       0                       0                       0
    94                       0                       0                       0
    95                       0                       0                       0
    96                       0                       0                       0
    97                       0                       0                       0
    98                       0                       0                       0
    99                       0                       0                       0
   100                       0                       0                       0
   101                       0                       0                       0
   102                       0                       0                       0
   103                       0                       0                       0
   104                       0                       0                       0
   105                       0                       0                       0
   106                       0                       0                       0
   107                       0                       0                       0
   108                       0                       0                       0
   109                       0                       0                       0
   110                       0                       0                       0
   111                       0                       0                       0
   112                       0                       0                       0
   113                       0                       0                       0
   114                       0                       0                       0
   115                       0                       0                       0
   116                       0                       0                       0
   117                       0                       0                       0
   118                       0                       0                       0
   119                       0                       0                       0
   120                       0                       0                       0
   121                       0                       0                       0
   122                       0                       0                       0
   123                       0                       0                       0
   124                       0                       0                       0
   125                       0                       0                       0
   126                       0                       0                       0
   127                       0                       0                       0
   128                       0                       0                       0
   129                       0                       0                       0
   130                       0                       0                       0
   131                       0                       0                       0
   132                       0                       0                       0
   133                       0                       0                       0
   134                       0                       0                       0
   135                       0                       0                       0
   136                       0                       0                       0
   137                       0                       0                       0
   138                       0                       0                       0
   139                       0                       0                       0
   140                       0                       0                       0
   141                       0                       0                       0
   142                       0                       0                       0
   143                       0                       0                       0
   144                       0                       0                       0
   145                       0                       0                       0
   146                       0                       0                       0
   147                       0                       0                       0
   148                       0                       0                       0
   149                       0                       0                       0
   150                       0                       0                       0
   151                       0                       0                       0
   152                       0                       0                       0
   153                       0                       0                       0
   154                       0                       0                       0
   155                       0                       0                       0
   156                       0                       0                       0
   157                       0                       0                       0
   158                       0                       0                       0
   159                       0                       0                       0
   160                       0                       0                       0
   161                       0                       0                       0
   162                       0                       0                       0
   163                       0                       0                       0
   164                       0                       0                       0
   165                       0                       0                       0
   166                       0                       0                       0
   167                       0                       0                       0
   168                       0                       0                       0
   169                       0                       0                       0
   170                       0                       0                       0
   171                       0                       0                       0
   172                       0                       0                       0
   173                       0                       0                       0
   174                       0                       0                       0
   175                       0                       0                       0