LAMMPS data file via write_data, version 2 Aug 2023, timestep = 0, units = metal

192 atoms
1 atom types

0 10.861899556822646 xlo xhi
0 16.292849335197314 ylo yhi
0 21.723799113620853 zlo zhi

Masses

1 9.999999999999999e-21

Atoms # atomic

5 1 1.3567897006667815 1.3563127769919574 1.3558378877908768 0 0 0
13 1 6.787739479078105 1.3563127769919572 1.3558378877908768 0 0 0
8 1 4.072268663084777 4.071787666191509 1.3558378877908768 0 0 0
16 1 9.5032184414961 4.071787666191509 1.3558378877908768 0 0 0
21 1 1.356797847091449 6.787262555391059 1.3558378877908768 0 0 0
29 1 6.787747625502773 6.787262555391059 1.3558378877908768 0 0 0
24 1 4.072276809509445 9.502737444590611 1.3558378877908768 0 0 0
32 1 9.503226587920768 9.502737444590611 1.3558378877908768 0 0 0
37 1 1.3568059935161167 12.218212333790163 1.3558378877908768 0 0 0
45 1 6.787755771927441 12.218212333790163 1.3558378877908768 0 0 0
40 1 4.072284955934112 14.933687222989718 1.3558378877908768 0 0 0
48 1 9.503234734345435 14.933687222989716 1.3558378877908768 0 0 0
7 1 4.072264589872443 1.3563127769919574 4.071312776993483 0 0 0
10 1 5.430004071081441 2.7140502215917333 2.7135753323921796 0 0 0
2 1 10.860953849492764 2.7140502215917337 2.7135753323921796 -1 0 0
15 1 9.503214368283766 1.3563127769919574 4.071312776993483 0 0 0
6 1 1.3567937738791154 4.071787666191509 4.071312776993483 0 0 0
19 1 2.7145332550881127 5.429525110791285 2.7135753323921796 0 0 0
14 1 6.787743552290439 4.071787666191509 4.071312776993483 0 0 0
27 1 8.145483033499437 5.429525110791285 2.7135753323921796 0 0 0
23 1 4.07227273629711 6.7872625553910595 4.071312776993483 0 0 0
26 1 5.430012217506109 8.144999999990839 2.7135753323921796 0 0 0
18 1 10.860961995917432 8.144999999990837 2.7135753323921796 -1 0 0
31 1 9.503222514708433 6.787262555391059 4.071312776993483 0 0 0
22 1 1.3568019203037829 9.502737444590611 4.071312776993483 0 0 0
35 1 2.71454140151278 10.86047488919039 2.7135753323921796 0 0 0
30 1 6.787751698715107 9.502737444590611 4.071312776993483 0 0 0
43 1 8.145491179924104 10.86047488919039 2.7135753323921796 0 0 0
39 1 4.0722808827217785 12.218212333790163 4.071312776993483 0 0 0
42 1 5.430020363930776 13.57594977838994 2.7135753323921796 0 0 0
34 1 10.860970142342099 13.575949778389939 2.7135753323921796 -1 0 0
47 1 9.5032306611331 12.218212333790163 4.071312776993483 0 0 0
3 1 2.714525108663445 16.291424667589496 2.7135753323921796 0 -1 0
38 1 1.3568100667284506 14.933687222989716 4.071312776993483 0 0 0
11 1 8.14547488707477 16.291424667589496 2.7135753323921796 0 -1 0
46 1 6.7877598451397745 14.933687222989716 4.071312776993483 0 0 0
52 1 2.7145291818757786 2.7140502215917337 5.429050221594785 0 0 0
53 1 1.3567897006667815 1.3563127769919574 6.78678766619609 0 0 0
60 1 8.145478960287102 2.7140502215917337 5.429050221594785 0 0 0
61 1 6.787739479078105 1.3563127769919572 6.78678766619609 0 0 0
56 1 4.072268663084777 4.071787666191509 6.78678766619609 0 0 0
73 1 5.430008144293774 5.429525110791285 5.429050221594785 0 0 0
64 1 9.5032184414961 4.071787666191509 6.78678766619609 0 0 0
65 1 10.860957922705097 5.429525110791285 5.429050221594785 -1 0 0
68 1 2.7145373283004464 8.144999999990837 5.429050221594785 0 0 0
69 1 1.356797847091449 6.787262555391059 6.78678766619609 0 0 0
76 1 8.14548710671177 8.144999999990837 5.429050221594785 0 0 0
77 1 6.787747625502773 6.787262555391059 6.78678766619609 0 0 0
72 1 4.072276809509445 9.502737444590611 6.78678766619609 0 0 0
89 1 5.430016290718442 10.860474889190392 5.429050221594785 0 0 0
80 1 9.503226587920768 9.502737444590611 6.78678766619609 0 0 0
81 1 10.860966069129764 10.86047488919039 5.429050221594785 -1 0 0
84 1 2.714545474725114 13.575949778389939 5.429050221594785 0 0 0
85 1 1.3568059935161167 12.218212333790163 6.78678766619609 0 0 0
92 1 8.145495253136437 13.575949778389939 5.429050221594785 0 0 0
93 1 6.787755771927441 12.218212333790163 6.78678766619609 0 0 0
57 1 5.429999997869107 16.291424667589496 5.429050221594785 0 -1 0
88 1 4.072284955934112 14.933687222989718 6.78678766619609 0 0 0
49 1 10.86094977628043 16.291424667589496 5.429050221594785 -1 -1 0
96 1 9.503234734345435 14.933687222989716 6.78678766619609 0 0 0
55 1 4.072264589872443 1.3563127769919574 9.502262555398696 0 0 0
58 1 5.430004071081441 2.7140502215917333 8.144525110797394 0 0 0
50 1 10.860953849492764 2.7140502215917337 8.144525110797394 -1 0 0
63 1 9.503214368283766 1.3563127769919574 9.502262555398696 0 0 0
54 1 1.3567937738791154 4.071787666191509 9.502262555398696 0 0 0
67 1 2.7145332550881127 5.429525110791285 8.144525110797394 0 0 0
62 1 6.787743552290439 4.071787666191509 9.502262555398696 0 0 0
75 1 8.145483033499437 5.429525110791285 8.144525110797394 0 0 0
71 1 4.07227273629711 6.7872625553910595 9.502262555398696 0 0 0
74 1 5.430012217506109 8.144999999990839 8.144525110797394 0 0 0
66 1 10.860961995917432 8.144999999990837 8.144525110797394 -1 0 0
79 1 9.503222514708433 6.787262555391059 9.502262555398696 0 0 0
70 1 1.3568019203037829 9.502737444590611 9.502262555398696 0 0 0
83 1 2.71454140151278 10.86047488919039 8.144525110797394 0 0 0
78 1 6.787751698715107 9.502737444590611 9.502262555398696 0 0 0
91 1 8.145491179924104 10.86047488919039 8.144525110797394 0 0 0
87 1 4.0722808827217785 12.218212333790163 9.502262555398696 0 0 0
90 1 5.430020363930776 13.57594977838994 8.144525110797394 0 0 0
82 1 10.860970142342099 13.575949778389939 8.144525110797394 -1 0 0
95 1 9.5032306611331 12.218212333790163 9.502262555398696 0 0 0
51 1 2.714525108663445 16.291424667589496 8.144525110797394 0 -1 0
86 1 1.3568100667284506 14.933687222989716 9.502262555398696 0 0 0
59 1 8.14547488707477 16.291424667589496 8.144525110797394 0 -1 0
94 1 6.7877598451397745 14.933687222989716 9.502262555398696 0 0 0
100 1 2.7145291818757786 2.7140502215917337 10.86 0 0 0
108 1 8.145478960287102 2.7140502215917337 10.86 0 0 0
121 1 5.430008144293774 5.429525110791285 10.86 0 0 0
113 1 10.860957922705097 5.429525110791285 10.86 -1 0 0
116 1 2.7145373283004464 8.144999999990837 10.86 0 0 0
124 1 8.14548710671177 8.144999999990837 10.86 0 0 0
137 1 5.430016290718442 10.860474889190392 10.86 0 0 0
129 1 10.860966069129764 10.86047488919039 10.86 -1 0 0
132 1 2.714545474725114 13.575949778389939 10.86 0 0 0
140 1 8.145495253136437 13.575949778389939 10.86 0 0 0
105 1 5.429999997869107 16.291424667589496 10.86 0 -1 0
97 1 10.86094977628043 16.291424667589496 10.86 -1 -1 0
101 1 1.3567897006667815 1.3563127769919574 12.217737444601305 0 0 0
106 1 5.430004071081441 2.7140502215917333 13.575474889202608 0 0 0
109 1 6.787739479078105 1.3563127769919572 12.217737444601305 0 0 0
98 1 10.860953849492764 2.7140502215917337 13.575474889202608 -1 0 0
115 1 2.7145332550881127 5.429525110791285 13.575474889202608 0 0 0
104 1 4.072268663084777 4.071787666191509 12.217737444601305 0 0 0
123 1 8.145483033499437 5.429525110791285 13.575474889202608 0 0 0
112 1 9.5032184414961 4.071787666191509 12.217737444601305 0 0 0
117 1 1.356797847091449 6.787262555391059 12.217737444601305 0 0 0
122 1 5.430012217506109 8.144999999990839 13.575474889202608 0 0 0
125 1 6.787747625502773 6.787262555391059 12.217737444601305 0 0 0
114 1 10.860961995917432 8.144999999990837 13.575474889202608 -1 0 0
131 1 2.71454140151278 10.86047488919039 13.575474889202608 0 0 0
120 1 4.072276809509445 9.502737444590611 12.217737444601305 0 0 0
139 1 8.145491179924104 10.86047488919039 13.575474889202608 0 0 0
128 1 9.503226587920768 9.502737444590611 12.217737444601305 0 0 0
133 1 1.3568059935161167 12.218212333790163 12.217737444601305 0 0 0
138 1 5.430020363930776 13.57594977838994 13.575474889202608 0 0 0
141 1 6.787755771927441 12.218212333790163 12.217737444601305 0 0 0
130 1 10.860970142342099 13.575949778389939 13.575474889202608 -1 0 0
99 1 2.714525108663445 16.291424667589496 13.575474889202608 0 -1 0
136 1 4.072284955934112 14.933687222989718 12.217737444601305 0 0 0
107 1 8.14547488707477 16.291424667589496 13.575474889202608 0 -1 0
144 1 9.503234734345435 14.933687222989716 12.217737444601305 0 0 0
148 1 2.7145291818757786 2.7140502215917337 16.290949778405214 0 0 0
103 1 4.072264589872443 1.3563127769919574 14.933212333803906 0 0 0
156 1 8.145478960287102 2.7140502215917337 16.290949778405214 0 0 0
111 1 9.503214368283766 1.3563127769919574 14.933212333803906 0 0 0
102 1 1.3567937738791154 4.071787666191509 14.933212333803906 0 0 0
169 1 5.430008144293774 5.429525110791285 16.290949778405214 0 0 0
110 1 6.787743552290439 4.071787666191509 14.933212333803906 0 0 0
161 1 10.860957922705097 5.429525110791285 16.290949778405214 -1 0 0
164 1 2.7145373283004464 8.144999999990837 16.290949778405214 0 0 0
119 1 4.07227273629711 6.7872625553910595 14.933212333803906 0 0 0
172 1 8.14548710671177 8.144999999990837 16.290949778405214 0 0 0
127 1 9.503222514708433 6.787262555391059 14.933212333803906 0 0 0
118 1 1.3568019203037829 9.502737444590611 14.933212333803906 0 0 0
185 1 5.430016290718442 10.860474889190392 16.290949778405214 0 0 0
126 1 6.787751698715107 9.502737444590611 14.933212333803906 0 0 0
177 1 10.860966069129764 10.86047488919039 16.290949778405214 -1 0 0
180 1 2.714545474725114 13.575949778389939 16.290949778405214 0 0 0
135 1 4.0722808827217785 12.218212333790163 14.933212333803906 0 0 0
188 1 8.145495253136437 13.575949778389939 16.290949778405214 0 0 0
143 1 9.5032306611331 12.218212333790163 14.933212333803906 0 0 0
134 1 1.3568100667284506 14.933687222989716 14.933212333803906 0 0 0
153 1 5.429999997869107 16.291424667589496 16.290949778405214 0 -1 0
142 1 6.7877598451397745 14.933687222989716 14.933212333803906 0 0 0
145 1 10.86094977628043 16.291424667589496 16.290949778405214 -1 -1 0
149 1 1.3567897006667815 1.3563127769919574 17.648687223006515 0 0 0
154 1 5.430004071081441 2.7140502215917333 19.00642466760782 0 0 0
157 1 6.787739479078105 1.3563127769919572 17.648687223006515 0 0 0
146 1 10.860953849492764 2.7140502215917337 19.00642466760782 -1 0 0
163 1 2.7145332550881127 5.429525110791285 19.00642466760782 0 0 0
152 1 4.072268663084777 4.071787666191509 17.648687223006515 0 0 0
171 1 8.145483033499437 5.429525110791285 19.00642466760782 0 0 0
160 1 9.5032184414961 4.071787666191509 17.648687223006515 0 0 0
165 1 1.356797847091449 6.787262555391059 17.648687223006515 0 0 0
170 1 5.430012217506109 8.144999999990839 19.00642466760782 0 0 0
173 1 6.787747625502773 6.787262555391059 17.648687223006515 0 0 0
162 1 10.860961995917432 8.144999999990837 19.00642466760782 -1 0 0
179 1 2.71454140151278 10.86047488919039 19.00642466760782 0 0 0
168 1 4.072276809509445 9.502737444590611 17.648687223006515 0 0 0
187 1 8.145491179924104 10.86047488919039 19.00642466760782 0 0 0
176 1 9.503226587920768 9.502737444590611 17.648687223006515 0 0 0
181 1 1.3568059935161167 12.218212333790163 17.648687223006515 0 0 0
186 1 5.430020363930776 13.57594977838994 19.00642466760782 0 0 0
189 1 6.787755771927441 12.218212333790163 17.648687223006515 0 0 0
178 1 10.860970142342099 13.575949778389939 19.00642466760782 -1 0 0
147 1 2.714525108663445 16.291424667589496 19.00642466760782 0 -1 0
184 1 4.072284955934112 14.933687222989718 17.648687223006515 0 0 0
155 1 8.14547488707477 16.291424667589496 19.00642466760782 0 -1 0
192 1 9.503234734345435 14.933687222989716 17.648687223006515 0 0 0
4 1 2.7145291818757786 2.7140502215917337 21.721899556810428 0 0 -1
151 1 4.072264589872443 1.3563127769919574 20.36416211220912 0 0 0
12 1 8.145478960287102 2.7140502215917337 21.721899556810428 0 0 -1
159 1 9.503214368283766 1.3563127769919574 20.36416211220912 0 0 0
150 1 1.3567937738791154 4.071787666191509 20.36416211220912 0 0 0
25 1 5.430008144293774 5.429525110791285 21.721899556810428 0 0 -1
158 1 6.787743552290439 4.071787666191509 20.36416211220912 0 0 0
17 1 10.860957922705097 5.429525110791285 21.721899556810428 -1 0 -1
20 1 2.7145373283004464 8.144999999990837 21.721899556810428 0 0 -1
167 1 4.07227273629711 6.7872625553910595 20.36416211220912 0 0 0
28 1 8.14548710671177 8.144999999990837 21.721899556810428 0 0 -1
175 1 9.503222514708433 6.787262555391059 20.36416211220912 0 0 0
166 1 1.3568019203037829 9.502737444590611 20.36416211220912 0 0 0
41 1 5.430016290718442 10.860474889190392 21.721899556810428 0 0 -1
174 1 6.787751698715107 9.502737444590611 20.36416211220912 0 0 0
33 1 10.860966069129764 10.86047488919039 21.721899556810428 -1 0 -1
36 1 2.714545474725114 13.575949778389939 21.721899556810428 0 0 -1
183 1 4.0722808827217785 12.218212333790163 20.36416211220912 0 0 0
44 1 8.145495253136437 13.575949778389939 21.721899556810428 0 0 -1
191 1 9.5032306611331 12.218212333790163 20.36416211220912 0 0 0
182 1 1.3568100667284506 14.933687222989716 20.36416211220912 0 0 0
9 1 5.429999997869107 16.291424667589496 21.721899556810428 0 -1 -1
190 1 6.7877598451397745 14.933687222989716 20.36416211220912 0 0 0
1 1 10.86094977628043 16.291424667589496 21.721899556810428 -1 -1 -1

Velocities

5 0 0 0
13 0 0 0
8 0 0 0
16 0 0 0
21 0 0 0
29 0 0 0
24 0 0 0
32 0 0 0
37 0 0 0
45 0 0 0
40 0 0 0
48 0 0 0
7 0 0 0
10 0 0 0
2 0 0 0
15 0 0 0
6 0 0 0
19 0 0 0
14 0 0 0
27 0 0 0
23 0 0 0
26 0 0 0
18 0 0 0
31 0 0 0
22 0 0 0
35 0 0 0
30 0 0 0
43 0 0 0
39 0 0 0
42 0 0 0
34 0 0 0
47 0 0 0
3 0 0 0
38 0 0 0
11 0 0 0
46 0 0 0
52 0 0 0
53 0 0 0
60 0 0 0
61 0 0 0
56 0 0 0
73 0 0 0
64 0 0 0
65 0 0 0
68 0 0 0
69 0 0 0
76 0 0 0
77 0 0 0
72 0 0 0
89 0 0 0
80 0 0 0
81 0 0 0
84 0 0 0
85 0 0 0
92 0 0 0
93 0 0 0
57 0 0 0
88 0 0 0
49 0 0 0
96 0 0 0
55 0 0 0
58 0 0 0
50 0 0 0
63 0 0 0
54 0 0 0
67 0 0 0
62 0 0 0
75 0 0 0
71 0 0 0
74 0 0 0
66 0 0 0
79 0 0 0
70 0 0 0
83 0 0 0
78 0 0 0
91 0 0 0
87 0 0 0
90 0 0 0
82 0 0 0
95 0 0 0
51 0 0 0
86 0 0 0
59 0 0 0
94 0 0 0
100 0 0 0
108 0 0 0
121 0 0 0
113 0 0 0
116 0 0 0
124 0 0 0
137 0 0 0
129 0 0 0
132 0 0 0
140 0 0 0
105 0 0 0
97 0 0 0
101 0 0 0
106 0 0 0
109 0 0 0
98 0 0 0
115 0 0 0
104 0 0 0
123 0 0 0
112 0 0 0
117 0 0 0
122 0 0 0
125 0 0 0
114 0 0 0
131 0 0 0
120 0 0 0
139 0 0 0
128 0 0 0
133 0 0 0
138 0 0 0
141 0 0 0
130 0 0 0
99 0 0 0
136 0 0 0
107 0 0 0
144 0 0 0
148 0 0 0
103 0 0 0
156 0 0 0
111 0 0 0
102 0 0 0
169 0 0 0
110 0 0 0
161 0 0 0
164 0 0 0
119 0 0 0
172 0 0 0
127 0 0 0
118 0 0 0
185 0 0 0
126 0 0 0
177 0 0 0
180 0 0 0
135 0 0 0
188 0 0 0
143 0 0 0
134 0 0 0
153 0 0 0
142 0 0 0
145 0 0 0
149 0 0 0
154 0 0 0
157 0 0 0
146 0 0 0
163 0 0 0
152 0 0 0
171 0 0 0
160 0 0 0
165 0 0 0
170 0 0 0
173 0 0 0
162 0 0 0
179 0 0 0
168 0 0 0
187 0 0 0
176 0 0 0
181 0 0 0
186 0 0 0
189 0 0 0
178 0 0 0
147 0 0 0
184 0 0 0
155 0 0 0
192 0 0 0
4 0 0 0
151 0 0 0
12 0 0 0
159 0 0 0
150 0 0 0
25 0 0 0
158 0 0 0
17 0 0 0
20 0 0 0
167 0 0 0
28 0 0 0
175 0 0 0
166 0 0 0
41 0 0 0
174 0 0 0
33 0 0 0
36 0 0 0
183 0 0 0
44 0 0 0
191 0 0 0
182 0 0 0
9 0 0 0
190 0 0 0
1 0 0 0
