LAMMPS data file via write_data, version 2 Aug 2023, timestep = 0, units = metal

192 atoms
1 atom types

0 10.861888694910869 xlo xhi
0 16.292849335215642 ylo yhi
0 21.723799113620853 zlo zhi

Masses

1 9.999999999999999e-21

Atoms # atomic

5 1 1.3567863094084236 1.3563127769934833 1.3558378877908768 0 0 0
13 1 6.787730656863859 1.3563127769934833 1.3558378877908768 0 0 0
8 1 4.0722584831361415 4.07178766619609 1.3558378877908768 0 0 0
16 1 9.503202830591576 4.07178766619609 1.3558378877908768 0 0 0
21 1 1.3567863094084236 6.787262555398695 1.3558378877908768 0 0 0
29 1 6.787730656863859 6.787262555398695 1.3558378877908768 0 0 0
24 1 4.0722584831361415 9.502737444601303 1.3558378877908768 0 0 0
32 1 9.503202830591576 9.502737444601303 1.3558378877908768 0 0 0
37 1 1.3567863094084236 12.21821233380391 1.3558378877908768 0 0 0
45 1 6.787730656863859 12.21821233380391 1.3558378877908768 0 0 0
40 1 4.0722584831361415 14.933687223006519 1.3558378877908768 0 0 0
48 1 9.503202830591576 14.933687223006519 1.3558378877908768 0 0 0
7 1 4.0722584831361415 1.3563127769934833 4.071312776993483 0 0 0
10 1 5.42999457 2.7140502215947873 2.7135753323921796 0 0 0
2 1 10.860938917455433 2.7140502215947873 2.7135753323921796 -1 0 0
15 1 9.503202830591576 1.3563127769934833 4.071312776993483 0 0 0
6 1 1.3567863094084236 4.07178766619609 4.071312776993483 0 0 0
19 1 2.7145223962722818 5.429525110797394 2.7135753323921796 0 0 0
14 1 6.787730656863859 4.07178766619609 4.071312776993483 0 0 0
27 1 8.145466743727717 5.429525110797394 2.7135753323921796 0 0 0
23 1 4.0722584831361415 6.787262555398695 4.071312776993483 0 0 0
26 1 5.42999457 8.145000000000001 2.7135753323921796 0 0 0
18 1 10.860938917455433 8.145000000000001 2.7135753323921796 -1 0 0
31 1 9.503202830591576 6.787262555398695 4.071312776993483 0 0 0
22 1 1.3567863094084236 9.502737444601303 4.071312776993483 0 0 0
35 1 2.7145223962722818 10.86047488920261 2.7135753323921796 0 0 0
30 1 6.787730656863859 9.502737444601303 4.071312776993483 0 0 0
43 1 8.145466743727717 10.86047488920261 2.7135753323921796 0 0 0
39 1 4.0722584831361415 12.21821233380391 4.071312776993483 0 0 0
42 1 5.42999457 13.575949778405214 2.7135753323921796 0 0 0
34 1 10.860938917455433 13.575949778405214 2.7135753323921796 -1 0 0
47 1 9.503202830591576 12.21821233380391 4.071312776993483 0 0 0
3 1 2.7145223962722818 16.29142466760782 2.7135753323921796 0 -1 0
38 1 1.3567863094084236 14.933687223006519 4.071312776993483 0 0 0
11 1 8.145466743727717 16.29142466760782 2.7135753323921796 0 -1 0
46 1 6.787730656863859 14.933687223006519 4.071312776993483 0 0 0
52 1 2.7145223962722818 2.7140502215947873 5.429050221594785 0 0 0
53 1 1.3567863094084236 1.3563127769934833 6.78678766619609 0 0 0
60 1 8.145466743727717 2.7140502215947873 5.429050221594785 0 0 0
61 1 6.787730656863859 1.3563127769934833 6.78678766619609 0 0 0
56 1 4.0722584831361415 4.07178766619609 6.78678766619609 0 0 0
73 1 5.42999457 5.429525110797394 5.429050221594785 0 0 0
64 1 9.503202830591576 4.07178766619609 6.78678766619609 0 0 0
65 1 10.860938917455433 5.429525110797394 5.429050221594785 -1 0 0
68 1 2.7145223962722818 8.145000000000001 5.429050221594785 0 0 0
69 1 1.3567863094084236 6.787262555398695 6.78678766619609 0 0 0
76 1 8.145466743727717 8.145000000000001 5.429050221594785 0 0 0
77 1 6.787730656863859 6.787262555398695 6.78678766619609 0 0 0
72 1 4.0722584831361415 9.502737444601303 6.78678766619609 0 0 0
89 1 5.42999457 10.86047488920261 5.429050221594785 0 0 0
80 1 9.503202830591576 9.502737444601303 6.78678766619609 0 0 0
81 1 10.860938917455433 10.86047488920261 5.429050221594785 -1 0 0
84 1 2.7145223962722818 13.575949778405214 5.429050221594785 0 0 0
85 1 1.3567863094084236 12.21821233380391 6.78678766619609 0 0 0
92 1 8.145466743727717 13.575949778405214 5.429050221594785 0 0 0
93 1 6.787730656863859 12.21821233380391 6.78678766619609 0 0 0
57 1 5.42999457 16.29142466760782 5.429050221594785 0 -1 0
88 1 4.0722584831361415 14.933687223006519 6.78678766619609 0 0 0
49 1 10.860938917455433 16.29142466760782 5.429050221594785 -1 -1 0
96 1 9.503202830591576 14.933687223006519 6.78678766619609 0 0 0
55 1 4.0722584831361415 1.3563127769934833 9.502262555398696 0 0 0
58 1 5.42999457 2.7140502215947873 8.144525110797394 0 0 0
50 1 10.860938917455433 2.7140502215947873 8.144525110797394 -1 0 0
63 1 9.503202830591576 1.3563127769934833 9.502262555398696 0 0 0
54 1 1.3567863094084236 4.07178766619609 9.502262555398696 0 0 0
67 1 2.7145223962722818 5.429525110797394 8.144525110797394 0 0 0
62 1 6.787730656863859 4.07178766619609 9.502262555398696 0 0 0
75 1 8.145466743727717 5.429525110797394 8.144525110797394 0 0 0
71 1 4.0722584831361415 6.787262555398695 9.502262555398696 0 0 0
74 1 5.42999457 8.145000000000001 8.144525110797394 0 0 0
66 1 10.860938917455433 8.145000000000001 8.144525110797394 -1 0 0
79 1 9.503202830591576 6.787262555398695 9.502262555398696 0 0 0
70 1 1.3567863094084236 9.502737444601303 9.502262555398696 0 0 0
83 1 2.7145223962722818 10.86047488920261 8.144525110797394 0 0 0
78 1 6.787730656863859 9.502737444601303 9.502262555398696 0 0 0
91 1 8.145466743727717 10.86047488920261 8.144525110797394 0 0 0
87 1 4.0722584831361415 12.21821233380391 9.502262555398696 0 0 0
90 1 5.42999457 13.575949778405214 8.144525110797394 0 0 0
82 1 10.860938917455433 13.575949778405214 8.144525110797394 -1 0 0
95 1 9.503202830591576 12.21821233380391 9.502262555398696 0 0 0
51 1 2.7145223962722818 16.29142466760782 8.144525110797394 0 -1 0
86 1 1.3567863094084236 14.933687223006519 9.502262555398696 0 0 0
59 1 8.145466743727717 16.29142466760782 8.144525110797394 0 -1 0
94 1 6.787730656863859 14.933687223006519 9.502262555398696 0 0 0
100 1 2.7145223962722818 2.7140502215947873 10.86 0 0 0
108 1 8.145466743727717 2.7140502215947873 10.86 0 0 0
121 1 5.42999457 5.429525110797394 10.86 0 0 0
113 1 10.860938917455433 5.429525110797394 10.86 -1 0 0
116 1 2.7145223962722818 8.145000000000001 10.86 0 0 0
124 1 8.145466743727717 8.145000000000001 10.86 0 0 0
137 1 5.42999457 10.86047488920261 10.86 0 0 0
129 1 10.860938917455433 10.86047488920261 10.86 -1 0 0
132 1 2.7145223962722818 13.575949778405214 10.86 0 0 0
140 1 8.145466743727717 13.575949778405214 10.86 0 0 0
105 1 5.42999457 16.29142466760782 10.86 0 -1 0
97 1 10.860938917455433 16.29142466760782 10.86 -1 -1 0
101 1 1.3567863094084236 1.3563127769934833 12.217737444601305 0 0 0
106 1 5.42999457 2.7140502215947873 13.575474889202608 0 0 0
109 1 6.787730656863859 1.3563127769934833 12.217737444601305 0 0 0
98 1 10.860938917455433 2.7140502215947873 13.575474889202608 -1 0 0
115 1 2.7145223962722818 5.429525110797394 13.575474889202608 0 0 0
104 1 4.0722584831361415 4.07178766619609 12.217737444601305 0 0 0
123 1 8.145466743727717 5.429525110797394 13.575474889202608 0 0 0
112 1 9.503202830591576 4.07178766619609 12.217737444601305 0 0 0
117 1 1.3567863094084236 6.787262555398695 12.217737444601305 0 0 0
122 1 5.42999457 8.145000000000001 13.575474889202608 0 0 0
125 1 6.787730656863859 6.787262555398695 12.217737444601305 0 0 0
114 1 10.860938917455433 8.145000000000001 13.575474889202608 -1 0 0
131 1 2.7145223962722818 10.86047488920261 13.575474889202608 0 0 0
120 1 4.0722584831361415 9.502737444601303 12.217737444601305 0 0 0
139 1 8.145466743727717 10.86047488920261 13.575474889202608 0 0 0
128 1 9.503202830591576 9.502737444601303 12.217737444601305 0 0 0
133 1 1.3567863094084236 12.21821233380391 12.217737444601305 0 0 0
138 1 5.42999457 13.575949778405214 13.575474889202608 0 0 0
141 1 6.787730656863859 12.21821233380391 12.217737444601305 0 0 0
130 1 10.860938917455433 13.575949778405214 13.575474889202608 -1 0 0
99 1 2.7145223962722818 16.29142466760782 13.575474889202608 0 -1 0
136 1 4.0722584831361415 14.933687223006519 12.217737444601305 0 0 0
107 1 8.145466743727717 16.29142466760782 13.575474889202608 0 -1 0
144 1 9.503202830591576 14.933687223006519 12.217737444601305 0 0 0
148 1 2.7145223962722818 2.7140502215947873 16.290949778405214 0 0 0
103 1 4.0722584831361415 1.3563127769934833 14.933212333803906 0 0 0
156 1 8.145466743727717 2.7140502215947873 16.290949778405214 0 0 0
111 1 9.503202830591576 1.3563127769934833 14.933212333803906 0 0 0
102 1 1.3567863094084236 4.07178766619609 14.933212333803906 0 0 0
169 1 5.42999457 5.429525110797394 16.290949778405214 0 0 0
110 1 6.787730656863859 4.07178766619609 14.933212333803906 0 0 0
161 1 10.860938917455433 5.429525110797394 16.290949778405214 -1 0 0
164 1 2.7145223962722818 8.145000000000001 16.290949778405214 0 0 0
119 1 4.0722584831361415 6.787262555398695 14.933212333803906 0 0 0
172 1 8.145466743727717 8.145000000000001 16.290949778405214 0 0 0
127 1 9.503202830591576 6.787262555398695 14.933212333803906 0 0 0
118 1 1.3567863094084236 9.502737444601303 14.933212333803906 0 0 0
185 1 5.42999457 10.86047488920261 16.290949778405214 0 0 0
126 1 6.787730656863859 9.502737444601303 14.933212333803906 0 0 0
177 1 10.860938917455433 10.86047488920261 16.290949778405214 -1 0 0
180 1 2.7145223962722818 13.575949778405214 16.290949778405214 0 0 0
135 1 4.0722584831361415 12.21821233380391 14.933212333803906 0 0 0
188 1 8.145466743727717 13.575949778405214 16.290949778405214 0 0 0
143 1 9.503202830591576 12.21821233380391 14.933212333803906 0 0 0
134 1 1.3567863094084236 14.933687223006519 14.933212333803906 0 0 0
153 1 5.42999457 16.29142466760782 16.290949778405214 0 -1 0
142 1 6.787730656863859 14.933687223006519 14.933212333803906 0 0 0
145 1 10.860938917455433 16.29142466760782 16.290949778405214 -1 -1 0
149 1 1.3567863094084236 1.3563127769934833 17.648687223006515 0 0 0
154 1 5.42999457 2.7140502215947873 19.00642466760782 0 0 0
157 1 6.787730656863859 1.3563127769934833 17.648687223006515 0 0 0
146 1 10.860938917455433 2.7140502215947873 19.00642466760782 -1 0 0
163 1 2.7145223962722818 5.429525110797394 19.00642466760782 0 0 0
152 1 4.0722584831361415 4.07178766619609 17.648687223006515 0 0 0
171 1 8.145466743727717 5.429525110797394 19.00642466760782 0 0 0
160 1 9.503202830591576 4.07178766619609 17.648687223006515 0 0 0
165 1 1.3567863094084236 6.787262555398695 17.648687223006515 0 0 0
170 1 5.42999457 8.145000000000001 19.00642466760782 0 0 0
173 1 6.787730656863859 6.787262555398695 17.648687223006515 0 0 0
162 1 10.860938917455433 8.145000000000001 19.00642466760782 -1 0 0
179 1 2.7145223962722818 10.86047488920261 19.00642466760782 0 0 0
168 1 4.0722584831361415 9.502737444601303 17.648687223006515 0 0 0
187 1 8.145466743727717 10.86047488920261 19.00642466760782 0 0 0
176 1 9.503202830591576 9.502737444601303 17.648687223006515 0 0 0
181 1 1.3567863094084236 12.21821233380391 17.648687223006515 0 0 0
186 1 5.42999457 13.575949778405214 19.00642466760782 0 0 0
189 1 6.787730656863859 12.21821233380391 17.648687223006515 0 0 0
178 1 10.860938917455433 13.575949778405214 19.00642466760782 -1 0 0
147 1 2.7145223962722818 16.29142466760782 19.00642466760782 0 -1 0
184 1 4.0722584831361415 14.933687223006519 17.648687223006515 0 0 0
155 1 8.145466743727717 16.29142466760782 19.00642466760782 0 -1 0
192 1 9.503202830591576 14.933687223006519 17.648687223006515 0 0 0
4 1 2.7145223962722818 2.7140502215947873 21.721899556810428 0 0 -1
151 1 4.0722584831361415 1.3563127769934833 20.36416211220912 0 0 0
12 1 8.145466743727717 2.7140502215947873 21.721899556810428 0 0 -1
159 1 9.503202830591576 1.3563127769934833 20.36416211220912 0 0 0
150 1 1.3567863094084236 4.07178766619609 20.36416211220912 0 0 0
25 1 5.42999457 5.429525110797394 21.721899556810428 0 0 -1
158 1 6.787730656863859 4.07178766619609 20.36416211220912 0 0 0
17 1 10.860938917455433 5.429525110797394 21.721899556810428 -1 0 -1
20 1 2.7145223962722818 8.145000000000001 21.721899556810428 0 0 -1
167 1 4.0722584831361415 6.787262555398695 20.36416211220912 0 0 0
28 1 8.145466743727717 8.145000000000001 21.721899556810428 0 0 -1
175 1 9.503202830591576 6.787262555398695 20.36416211220912 0 0 0
166 1 1.3567863094084236 9.502737444601303 20.36416211220912 0 0 0
41 1 5.42999457 10.86047488920261 21.721899556810428 0 0 -1
174 1 6.787730656863859 9.502737444601303 20.36416211220912 0 0 0
33 1 10.860938917455433 10.86047488920261 21.721899556810428 -1 0 -1
36 1 2.7145223962722818 13.575949778405214 21.721899556810428 0 0 -1
183 1 4.0722584831361415 12.21821233380391 20.36416211220912 0 0 0
44 1 8.145466743727717 13.575949778405214 21.721899556810428 0 0 -1
191 1 9.503202830591576 12.21821233380391 20.36416211220912 0 0 0
182 1 1.3567863094084236 14.933687223006519 20.36416211220912 0 0 0
9 1 5.42999457 16.29142466760782 21.721899556810428 0 -1 -1
190 1 6.787730656863859 14.933687223006519 20.36416211220912 0 0 0
1 1 10.860938917455433 16.29142466760782 21.721899556810428 -1 -1 -1

Velocities

5 0 0 0
13 0 0 0
8 0 0 0
16 0 0 0
21 0 0 0
29 0 0 0
24 0 0 0
32 0 0 0
37 0 0 0
45 0 0 0
40 0 0 0
48 0 0 0
7 0 0 0
10 0 0 0
2 0 0 0
15 0 0 0
6 0 0 0
19 0 0 0
14 0 0 0
27 0 0 0
23 0 0 0
26 0 0 0
18 0 0 0
31 0 0 0
22 0 0 0
35 0 0 0
30 0 0 0
43 0 0 0
39 0 0 0
42 0 0 0
34 0 0 0
47 0 0 0
3 0 0 0
38 0 0 0
11 0 0 0
46 0 0 0
52 0 0 0
53 0 0 0
60 0 0 0
61 0 0 0
56 0 0 0
73 0 0 0
64 0 0 0
65 0 0 0
68 0 0 0
69 0 0 0
76 0 0 0
77 0 0 0
72 0 0 0
89 0 0 0
80 0 0 0
81 0 0 0
84 0 0 0
85 0 0 0
92 0 0 0
93 0 0 0
57 0 0 0
88 0 0 0
49 0 0 0
96 0 0 0
55 0 0 0
58 0 0 0
50 0 0 0
63 0 0 0
54 0 0 0
67 0 0 0
62 0 0 0
75 0 0 0
71 0 0 0
74 0 0 0
66 0 0 0
79 0 0 0
70 0 0 0
83 0 0 0
78 0 0 0
91 0 0 0
87 0 0 0
90 0 0 0
82 0 0 0
95 0 0 0
51 0 0 0
86 0 0 0
59 0 0 0
94 0 0 0
100 0 0 0
108 0 0 0
121 0 0 0
113 0 0 0
116 0 0 0
124 0 0 0
137 0 0 0
129 0 0 0
132 0 0 0
140 0 0 0
105 0 0 0
97 0 0 0
101 0 0 0
106 0 0 0
109 0 0 0
98 0 0 0
115 0 0 0
104 0 0 0
123 0 0 0
112 0 0 0
117 0 0 0
122 0 0 0
125 0 0 0
114 0 0 0
131 0 0 0
120 0 0 0
139 0 0 0
128 0 0 0
133 0 0 0
138 0 0 0
141 0 0 0
130 0 0 0
99 0 0 0
136 0 0 0
107 0 0 0
144 0 0 0
148 0 0 0
103 0 0 0
156 0 0 0
111 0 0 0
102 0 0 0
169 0 0 0
110 0 0 0
161 0 0 0
164 0 0 0
119 0 0 0
172 0 0 0
127 0 0 0
118 0 0 0
185 0 0 0
126 0 0 0
177 0 0 0
180 0 0 0
135 0 0 0
188 0 0 0
143 0 0 0
134 0 0 0
153 0 0 0
142 0 0 0
145 0 0 0
149 0 0 0
154 0 0 0
157 0 0 0
146 0 0 0
163 0 0 0
152 0 0 0
171 0 0 0
160 0 0 0
165 0 0 0
170 0 0 0
173 0 0 0
162 0 0 0
179 0 0 0
168 0 0 0
187 0 0 0
176 0 0 0
181 0 0 0
186 0 0 0
189 0 0 0
178 0 0 0
147 0 0 0
184 0 0 0
155 0 0 0
192 0 0 0
4 0 0 0
151 0 0 0
12 0 0 0
159 0 0 0
150 0 0 0
25 0 0 0
158 0 0 0
17 0 0 0
20 0 0 0
167 0 0 0
28 0 0 0
175 0 0 0
166 0 0 0
41 0 0 0
174 0 0 0
33 0 0 0
36 0 0 0
183 0 0 0
44 0 0 0
191 0 0 0
182 0 0 0
9 0 0 0
190 0 0 0
1 0 0 0
