(written by ASE)

192 atoms
1 atom types

0.0      10.861899556832151  xlo xhi
0.0      16.292849335215642  ylo yhi
0.0      21.723799113577403  zlo zhi

Atoms # atomic

     1   1 -0.00094977460610160024  -0.0014246676078202446  -0.0018995568104228191
     2   1 -0.00095520555587999458      2.7140502215947873      2.7135753323867529
     3   1      2.7145196836521563  -0.0014246676078202454      2.7135753323867529
     4   1      2.7145251146019351      2.7140502215947873  -0.0018995568104228191
     5   1      1.3567849545230277      1.3563127769934833      1.3558378877881652
     6   1      1.3567795235732494      4.0717876661960899      4.0713127769853399
     7   1      4.0722544127812874      1.3563127769934833      4.0713127769853399
     8   1      4.0722598437310662      4.0717876661960899      1.3558378877881652
     9   1      5.4300000038099725  -0.0014246676078202452  -0.0018995568104228191
    10   1      5.4299945728601946      2.7140502215947873      2.7135753323867524
    11   1      8.1454694620682329  -0.0014246676078202463      2.7135753323867524
    12   1      8.1454748930180116      2.7140502215947873  -0.0018995568104228191
    13   1      6.7877347329391036      1.3563127769934833      1.3558378877881652
    14   1      6.7877293019893257      4.0717876661960899      4.0713127769853408
    15   1      9.5032041911973621      1.3563127769934833      4.0713127769853399
    16   1      9.5032096221471409      4.0717876661960899      1.3558378877881652
    17   1 -0.00094977460610160024      5.4295251107973943  -0.0018995568104228191
    18   1 -0.00095520555587999458      8.1450000000000014      2.7135753323867529
    19   1      2.7145196836521563      5.4295251107973943      2.7135753323867529
    20   1      2.7145251146019351      8.1450000000000014  -0.0018995568104228191
    21   1      1.3567849545230277      6.7872625553986952      1.3558378877881652
    22   1      1.3567795235732494      9.5027374446013031      4.0713127769853399
    23   1      4.0722544127812874      6.7872625553986952      4.0713127769853399
    24   1      4.0722598437310662      9.5027374446013031      1.3558378877881652
    25   1      5.4300000038099725      5.4295251107973943  -0.0018995568104228191
    26   1      5.4299945728601946      8.1450000000000014      2.7135753323867524
    27   1      8.1454694620682329      5.4295251107973943      2.7135753323867524
    28   1      8.1454748930180116      8.1450000000000014  -0.0018995568104228191
    29   1      6.7877347329391036      6.7872625553986952      1.3558378877881652
    30   1      6.7877293019893257      9.5027374446013031      4.0713127769853408
    31   1      9.5032041911973621      6.7872625553986952      4.0713127769853399
    32   1      9.5032096221471409      9.5027374446013031      1.3558378877881652
    33   1 -0.00094977460610160024       10.86047488920261  -0.0018995568104228191
    34   1 -0.00095520555587999458      13.575949778405214      2.7135753323867529
    35   1      2.7145196836521563       10.86047488920261      2.7135753323867529
    36   1      2.7145251146019351      13.575949778405214  -0.0018995568104228191
    37   1      1.3567849545230277       12.21821233380391      1.3558378877881652
    38   1      1.3567795235732494      14.933687223006519      4.0713127769853399
    39   1      4.0722544127812874       12.21821233380391      4.0713127769853399
    40   1      4.0722598437310662      14.933687223006519      1.3558378877881652
    41   1      5.4300000038099725       10.86047488920261  -0.0018995568104228191
    42   1      5.4299945728601946      13.575949778405214      2.7135753323867524
    43   1      8.1454694620682329       10.86047488920261      2.7135753323867524
    44   1      8.1454748930180116      13.575949778405214  -0.0018995568104228191
    45   1      6.7877347329391036       12.21821233380391      1.3558378877881652
    46   1      6.7877293019893257      14.933687223006519      4.0713127769853408
    47   1      9.5032041911973621       12.21821233380391      4.0713127769853399
    48   1      9.5032096221471409      14.933687223006519      1.3558378877881652
    49   1 -0.00096063650565838892  -0.0014246676078202463      5.4290502215839274
    50   1 -0.00096606745543678337      2.7140502215947873       8.144525110781105
    51   1      2.7145088217525997  -0.0014246676078202456      8.1445251107811067
    52   1       2.714514252702378      2.7140502215947873      5.4290502215839274
    53   1       1.356774092623471      1.3563127769934833      6.7867876661825166
    54   1      1.3567686616736927      4.0717876661960899      9.5022625553796924
    55   1      4.0722435508817307      1.3563127769934833      9.5022625553796907
    56   1      4.0722489818315095      4.0717876661960899      6.7867876661825157
    57   1      5.4299891419104158  -0.0014246676078202456      5.4290502215839274
    58   1      5.4299837109606379      2.7140502215947873       8.144525110781105
    59   1      8.1454586001686753  -0.0014246676078202459       8.144525110781105
    60   1      8.1454640311184541      2.7140502215947873      5.4290502215839274
    61   1      6.7877238710395469      1.3563127769934833      6.7867876661825166
    62   1      6.7877184400897681      4.0717876661960899      9.5022625553796907
    63   1      9.5031933292978046      1.3563127769934833      9.5022625553796924
    64   1      9.5031987602475834      4.0717876661960899      6.7867876661825166
    65   1 -0.00096063650565838892      5.4295251107973943      5.4290502215839274
    66   1 -0.00096606745543678337      8.1450000000000014       8.144525110781105
    67   1      2.7145088217525997      5.4295251107973943      8.1445251107811067
    68   1       2.714514252702378      8.1450000000000014      5.4290502215839274
    69   1       1.356774092623471      6.7872625553986952      6.7867876661825166
    70   1      1.3567686616736927      9.5027374446013031      9.5022625553796924
    71   1      4.0722435508817307      6.7872625553986952      9.5022625553796907
    72   1      4.0722489818315095      9.5027374446013031      6.7867876661825157
    73   1      5.4299891419104158      5.4295251107973943      5.4290502215839274
    74   1      5.4299837109606379      8.1450000000000014       8.144525110781105
    75   1      8.1454586001686753      5.4295251107973943       8.144525110781105
    76   1      8.1454640311184541      8.1450000000000014      5.4290502215839274
    77   1      6.7877238710395469      6.7872625553986952      6.7867876661825166
    78   1      6.7877184400897681      9.5027374446013031      9.5022625553796907
    79   1      9.5031933292978046      6.7872625553986952      9.5022625553796924
    80   1      9.5031987602475834      9.5027374446013031      6.7867876661825166
    81   1 -0.00096063650565838892       10.86047488920261      5.4290502215839274
    82   1 -0.00096606745543678337      13.575949778405214       8.144525110781105
    83   1      2.7145088217525997       10.86047488920261      8.1445251107811067
    84   1       2.714514252702378      13.575949778405214      5.4290502215839274
    85   1       1.356774092623471       12.21821233380391      6.7867876661825166
    86   1      1.3567686616736927      14.933687223006519      9.5022625553796924
    87   1      4.0722435508817307       12.21821233380391      9.5022625553796907
    88   1      4.0722489818315095      14.933687223006519      6.7867876661825157
    89   1      5.4299891419104158       10.86047488920261      5.4290502215839274
    90   1      5.4299837109606379      13.575949778405214       8.144525110781105
    91   1      8.1454586001686753       10.86047488920261       8.144525110781105
    92   1      8.1454640311184541      13.575949778405214      5.4290502215839274
    93   1      6.7877238710395469       12.21821233380391      6.7867876661825166
    94   1      6.7877184400897681      14.933687223006519      9.5022625553796907
    95   1      9.5031933292978046       12.21821233380391      9.5022625553796924
    96   1      9.5031987602475834      14.933687223006519      6.7867876661825166
    97   1 -0.00097149840521517771  -0.0014246676078202463       10.85999999997828
    98   1 -0.00097692935499357194      2.7140502215947873      13.575474889175457
    99   1       2.714497959853043  -0.0014246676078202463      13.575474889175458
   100   1      2.7145033908028213      2.7140502215947873       10.85999999997828
   101   1      1.3567632307239141      1.3563127769934833      12.217737444576869
   102   1      1.3567577997741358      4.0717876661960899      14.933212333774041
   103   1      4.0722326889821741      1.3563127769934833      14.933212333774041
   104   1      4.0722381199319519      4.0717876661960899      12.217737444576869
   105   1      5.4299782800108591  -0.0014246676078202461       10.85999999997828
   106   1      5.4299728490610804      2.7140502215947873      13.575474889175458
   107   1      8.1454477382691195  -0.0014246676078202461      13.575474889175458
   108   1      8.1454531692188983      2.7140502215947873       10.85999999997828
   109   1      6.7877130091399902      1.3563127769934833      12.217737444576869
   110   1      6.7877075781902114      4.0717876661960899      14.933212333774041
   111   1      9.5031824673982488      1.3563127769934833      14.933212333774041
   112   1      9.5031878983480276      4.0717876661960899      12.217737444576871
   113   1 -0.00097149840521517771      5.4295251107973943       10.85999999997828
   114   1 -0.00097692935499357194      8.1450000000000014      13.575474889175457
   115   1       2.714497959853043      5.4295251107973943      13.575474889175458
   116   1      2.7145033908028213      8.1450000000000014       10.85999999997828
   117   1      1.3567632307239141      6.7872625553986952      12.217737444576869
   118   1      1.3567577997741358      9.5027374446013031      14.933212333774041
   119   1      4.0722326889821741      6.7872625553986952      14.933212333774041
   120   1      4.0722381199319519      9.5027374446013031      12.217737444576869
   121   1      5.4299782800108591      5.4295251107973943       10.85999999997828
   122   1      5.4299728490610804      8.1450000000000014      13.575474889175458
   123   1      8.1454477382691195      5.4295251107973943      13.575474889175458
   124   1      8.1454531692188983      8.1450000000000014       10.85999999997828
   125   1      6.7877130091399902      6.7872625553986952      12.217737444576869
   126   1      6.7877075781902114      9.5027374446013031      14.933212333774041
   127   1      9.5031824673982488      6.7872625553986952      14.933212333774041
   128   1      9.5031878983480276      9.5027374446013031      12.217737444576871
   129   1 -0.00097149840521517771       10.86047488920261       10.85999999997828
   130   1 -0.00097692935499357194      13.575949778405214      13.575474889175457
   131   1       2.714497959853043       10.86047488920261      13.575474889175458
   132   1      2.7145033908028213      13.575949778405214       10.85999999997828
   133   1      1.3567632307239141       12.21821233380391      12.217737444576869
   134   1      1.3567577997741358      14.933687223006519      14.933212333774041
   135   1      4.0722326889821741       12.21821233380391      14.933212333774041
   136   1      4.0722381199319519      14.933687223006519      12.217737444576869
   137   1      5.4299782800108591       10.86047488920261       10.85999999997828
   138   1      5.4299728490610804      13.575949778405214      13.575474889175458
   139   1      8.1454477382691195       10.86047488920261      13.575474889175458
   140   1      8.1454531692188983      13.575949778405214       10.85999999997828
   141   1      6.7877130091399902       12.21821233380391      12.217737444576869
   142   1      6.7877075781902114      14.933687223006519      14.933212333774041
   143   1      9.5031824673982488       12.21821233380391      14.933212333774041
   144   1      9.5031878983480276      14.933687223006519      12.217737444576871
   145   1 -0.00098236030477196639  -0.0014246676078202459      16.290949778372635
   146   1 -0.00098779125455036084      2.7140502215947873       19.00642466756981
   147   1      2.7144870979534863  -0.0014246676078202465      19.006424667569807
   148   1      2.7144925289032646      2.7140502215947873      16.290949778372632
   149   1      1.3567523688243575      1.3563127769934833      17.648687222971219
   150   1      1.3567469378745791      4.0717876661960899      20.364162112168394
   151   1      4.0722218270826174      1.3563127769934833       20.36416211216839
   152   1      4.0722272580323953      4.0717876661960899      17.648687222971219
   153   1      5.4299674181113025  -0.0014246676078202463      16.290949778372632
   154   1      5.4299619871615237      2.7140502215947873       19.00642466756981
   155   1      8.1454368763695619  -0.0014246676078202456       19.00642466756981
   156   1      8.1454423073193407      2.7140502215947873      16.290949778372635
   157   1      6.7877021472404335      1.3563127769934833      17.648687222971219
   158   1      6.7876967162906547      4.0717876661960899      20.364162112168394
   159   1      9.5031716054986912      1.3563127769934833       20.36416211216839
   160   1        9.50317703644847      4.0717876661960899      17.648687222971219
   161   1 -0.00098236030477196639      5.4295251107973943      16.290949778372635
   162   1 -0.00098779125455036084      8.1450000000000014       19.00642466756981
   163   1      2.7144870979534863      5.4295251107973943      19.006424667569807
   164   1      2.7144925289032646      8.1450000000000014      16.290949778372632
   165   1      1.3567523688243575      6.7872625553986952      17.648687222971219
   166   1      1.3567469378745791      9.5027374446013031      20.364162112168394
   167   1      4.0722218270826174      6.7872625553986952       20.36416211216839
   168   1      4.0722272580323953      9.5027374446013031      17.648687222971219
   169   1      5.4299674181113025      5.4295251107973943      16.290949778372632
   170   1      5.4299619871615237      8.1450000000000014       19.00642466756981
   171   1      8.1454368763695619      5.4295251107973943       19.00642466756981
   172   1      8.1454423073193407      8.1450000000000014      16.290949778372635
   173   1      6.7877021472404335      6.7872625553986952      17.648687222971219
   174   1      6.7876967162906547      9.5027374446013031      20.364162112168394
   175   1      9.5031716054986912      6.7872625553986952       20.36416211216839
   176   1        9.50317703644847      9.5027374446013031      17.648687222971219
   177   1 -0.00098236030477196639       10.86047488920261      16.290949778372635
   178   1 -0.00098779125455036084      13.575949778405214       19.00642466756981
   179   1      2.7144870979534863       10.86047488920261      19.006424667569807
   180   1      2.7144925289032646      13.575949778405214      16.290949778372632
   181   1      1.3567523688243575       12.21821233380391      17.648687222971219
   182   1      1.3567469378745791      14.933687223006519      20.364162112168394
   183   1      4.0722218270826174       12.21821233380391       20.36416211216839
   184   1      4.0722272580323953      14.933687223006519      17.648687222971219
   185   1      5.4299674181113025       10.86047488920261      16.290949778372632
   186   1      5.4299619871615237      13.575949778405214       19.00642466756981
   187   1      8.1454368763695619       10.86047488920261       19.00642466756981
   188   1      8.1454423073193407      13.575949778405214      16.290949778372635
   189   1      6.7877021472404335       12.21821233380391      17.648687222971219
   190   1      6.7876967162906547      14.933687223006519      20.364162112168394
   191   1      9.5031716054986912       12.21821233380391       20.36416211216839
   192   1        9.50317703644847      14.933687223006519      17.648687222971219


Velocities

     1                       0                       0                       0
     2                       0                       0                       0
     3                       0                       0                       0
     4                       0                       0                       0
     5                       0                       0                       0
     6                       0                       0                       0
     7                       0                       0                       0
     8                       0                       0                       0
     9                       0                       0                       0
    10                       0                       0                       0
    11                       0                       0                       0
    12                       0                       0                       0
    13                       0                       0                       0
    14                       0                       0                       0
    15                       0                       0                       0
    16                       0                       0                       0
    17                       0                       0                       0
    18                       0                       0                       0
    19                       0                       0                       0
    20                       0                       0                       0
    21                       0                       0                       0
    22                       0                       0                       0
    23                       0                       0                       0
    24                       0                       0                       0
    25                       0                       0                       0
    26                       0                       0                       0
    27                       0                       0                       0
    28                       0                       0                       0
    29                       0                       0                       0
    30                       0                       0                       0
    31                       0                       0                       0
    32                       0                       0                       0
    33                       0                       0                       0
    34                       0                       0                       0
    35                       0                       0                       0
    36                       0                       0                       0
    37                       0                       0                       0
    38                       0                       0                       0
    39                       0                       0                       0
    40                       0                       0                       0
    41                       0                       0                       0
    42                       0                       0                       0
    43                       0                       0                       0
    44                       0                       0                       0
    45                       0                       0                       0
    46                       0                       0                       0
    47                       0                       0                       0
    48                       0                       0                       0
    49                       0                       0                       0
    50                       0                       0                       0
    51                       0                       0                       0
    52                       0                       0                       0
    53                       0                       0                       0
    54                       0                       0                       0
    55                       0                       0                       0
    56                       0                       0                       0
    57                       0                       0                       0
    58                       0                       0                       0
    59                       0                       0                       0
    60                       0                       0                       0
    61                       0                       0                       0
    62                       0                       0                       0
    63                       0                       0                       0
    64                       0                       0                       0
    65                       0                       0                       0
    66                       0                       0                       0
    67                       0                       0                       0
    68                       0                       0                       0
    69                       0                       0                       0
    70                       0                       0                       0
    71                       0                       0                       0
    72                       0                       0                       0
    73                       0                       0                       0
    74                       0                       0                       0
    75                       0                       0                       0
    76                       0                       0                       0
    77                       0                       0                       0
    78                       0                       0                       0
    79                       0                       0                       0
    80                       0                       0                       0
    81                       0                       0                       0
    82                       0                       0                       0
    83                       0                       0                       0
    84                       0                       0                       0
    85                       0                       0                       0
    86                       0                       0                       0
    87                       0                       0                       0
    88                       0                       0                       0
    89                       0                       0                       0
    90                       0                       0                       0
    91                       0                       0                       0
    92                       0                       0                       0
    93                       0                       0                       0
    94                       0                       0                       0
    95                       0                       0                       0
    96                       0                       0                       0
    97                       0                       0                       0
    98                       0                       0                       0
    99                       0                       0                       0
   100                       0                       0                       0
   101                       0                       0                       0
   102                       0                       0                       0
   103                       0                       0                       0
   104                       0                       0                       0
   105                       0                       0                       0
   106                       0                       0                       0
   107                       0                       0                       0
   108                       0                       0                       0
   109                       0                       0                       0
   110                       0                       0                       0
   111                       0                       0                       0
   112                       0                       0                       0
   113                       0                       0                       0
   114                       0                       0                       0
   115                       0                       0                       0
   116                       0                       0                       0
   117                       0                       0                       0
   118                       0                       0                       0
   119                       0                       0                       0
   120                       0                       0                       0
   121                       0                       0                       0
   122                       0                       0                       0
   123                       0                       0                       0
   124                       0                       0                       0
   125                       0                       0                       0
   126                       0                       0                       0
   127                       0                       0                       0
   128                       0                       0                       0
   129                       0                       0                       0
   130                       0                       0                       0
   131                       0                       0                       0
   132                       0                       0                       0
   133                       0                       0                       0
   134                       0                       0                       0
   135                       0                       0                       0
   136                       0                       0                       0
   137                       0                       0                       0
   138                       0                       0                       0
   139                       0                       0                       0
   140                       0                       0                       0
   141                       0                       0                       0
   142                       0                       0                       0
   143                       0                       0                       0
   144                       0                       0                       0
   145                       0                       0                       0
   146                       0                       0                       0
   147                       0                       0                       0
   148                       0                       0                       0
   149                       0                       0                       0
   150                       0                       0                       0
   151                       0                       0                       0
   152                       0                       0                       0
   153                       0                       0                       0
   154                       0                       0                       0
   155                       0                       0                       0
   156                       0                       0                       0
   157                       0                       0                       0
   158                       0                       0                       0
   159                       0                       0                       0
   160                       0                       0                       0
   161                       0                       0                       0
   162                       0                       0                       0
   163                       0                       0                       0
   164                       0                       0                       0
   165                       0                       0                       0
   166                       0                       0                       0
   167                       0                       0                       0
   168                       0                       0                       0
   169                       0                       0                       0
   170                       0                       0                       0
   171                       0                       0                       0
   172                       0                       0                       0
   173                       0                       0                       0
   174                       0                       0                       0
   175                       0                       0                       0