LAMMPS data file via write_data, version 2 Aug 2023, timestep = 0, units = metal

192 atoms
1 atom types

0 10.861899556810426 xlo xhi
0 16.292849335230123 ylo yhi
0 21.723799113601544 zlo zhi

Masses

1 9.999999999999999e-21

Atoms # atomic

5 1 1.3567876661960898 1.3563145847785394 1.3558378877896713 0 0 0
13 1 6.787737444601304 1.3563145847785394 1.3558378877896713 0 0 0
8 1 4.072262555398697 4.071789473983561 1.3558378877896713 0 0 0
16 1 9.50321233380391 4.071789473983561 1.3558378877896713 0 0 0
21 1 1.3567876661960898 6.787264363188579 1.3558378877896713 0 0 0
29 1 6.787737444601304 6.787264363188579 1.3558378877896713 0 0 0
24 1 4.072262555398697 9.502739252393603 1.3558378877896713 0 0 0
32 1 9.50321233380391 9.502739252393603 1.3558378877896713 0 0 0
37 1 1.3567876661960898 12.218214141598622 1.3558378877896715 0 0 0
45 1 6.787737444601304 12.218214141598622 1.3558378877896715 0 0 0
40 1 4.072262555398697 14.933689030803645 1.3558378877896713 0 0 0
48 1 9.50321233380391 14.933689030803645 1.3558378877896713 0 0 0
7 1 4.072262555398697 1.356318205411725 4.0713127769898625 0 0 0
10 1 5.43 2.7140538396976437 2.713575332389767 0 0 0
2 1 10.860949778405214 2.7140538396976437 2.713575332389767 -1 0 0
15 1 9.50321233380391 1.356318205411725 4.0713127769898625 0 0 0
6 1 1.3567876661960898 4.071793094616746 4.071312776989863 0 0 0
19 1 2.7145251107973927 5.429528728902665 2.7135753323897673 0 0 0
14 1 6.787737444601304 4.071793094616746 4.071312776989863 0 0 0
27 1 8.145474889202607 5.429528728902665 2.7135753323897673 0 0 0
23 1 4.072262555398697 6.787267983821765 4.0713127769898625 0 0 0
26 1 5.43 8.145003618107685 2.7135753323897673 0 0 0
18 1 10.860949778405214 8.145003618107685 2.7135753323897673 -1 0 0
31 1 9.50321233380391 6.787267983821765 4.0713127769898625 0 0 0
22 1 1.3567876661960898 9.502742873026788 4.071312776989863 0 0 0
35 1 2.7145251107973927 10.860478507312708 2.713575332389767 0 0 0
30 1 6.787737444601304 9.502742873026788 4.071312776989863 0 0 0
43 1 8.145474889202607 10.860478507312708 2.713575332389767 0 0 0
39 1 4.072262555398697 12.21821776223181 4.071312776989863 0 0 0
42 1 5.43 13.575953396517727 2.713575332389767 0 0 0
34 1 10.860949778405214 13.575953396517727 2.713575332389767 -1 0 0
47 1 9.50321233380391 12.21821776223181 4.071312776989863 0 0 0
3 1 2.7145251107973927 16.291428285722745 2.713575332389767 0 -1 0
38 1 1.3567876661960898 14.93369265143683 4.0713127769898625 0 0 0
11 1 8.145474889202607 16.291428285722745 2.713575332389767 0 -1 0
46 1 6.787737444601304 14.93369265143683 4.0713127769898625 0 0 0
52 1 2.7145251107973927 2.7140574603308294 5.429050221589959 0 0 0
53 1 1.3567876661960898 1.3563218260449106 6.7867876661900555 0 0 0
60 1 8.145474889202607 2.7140574603308294 5.429050221589959 0 0 0
61 1 6.787737444601304 1.3563218260449106 6.7867876661900555 0 0 0
56 1 4.072262555398697 4.071796715249932 6.786787666190056 0 0 0
73 1 5.43 5.42953234953585 5.429050221589959 0 0 0
64 1 9.50321233380391 4.071796715249932 6.786787666190056 0 0 0
65 1 10.860949778405214 5.42953234953585 5.429050221589959 -1 0 0
68 1 2.7145251107973927 8.145007238740872 5.429050221589958 0 0 0
69 1 1.3567876661960898 6.787271604454951 6.7867876661900555 0 0 0
76 1 8.145474889202607 8.145007238740872 5.429050221589958 0 0 0
77 1 6.787737444601304 6.787271604454951 6.7867876661900555 0 0 0
72 1 4.072262555398697 9.502746493659973 6.786787666190056 0 0 0
89 1 5.43 10.860482127945893 5.429050221589959 0 0 0
80 1 9.50321233380391 9.502746493659973 6.786787666190056 0 0 0
81 1 10.860949778405214 10.860482127945893 5.429050221589959 -1 0 0
84 1 2.7145251107973927 13.575957017150913 5.429050221589958 0 0 0
85 1 1.3567876661960898 12.218221382864995 6.786787666190056 0 0 0
92 1 8.145474889202607 13.575957017150913 5.429050221589958 0 0 0
93 1 6.787737444601304 12.218221382864995 6.786787666190056 0 0 0
57 1 5.43 16.291431906355932 5.429050221589958 0 -1 0
88 1 4.072262555398697 14.933696272070016 6.7867876661900555 0 0 0
49 1 10.860949778405214 16.291431906355932 5.429050221589958 -1 -1 0
96 1 9.50321233380391 14.933696272070016 6.7867876661900555 0 0 0
55 1 4.072262555398697 1.3563254466780963 9.502262555390248 0 0 0
58 1 5.43 2.7140610809640147 8.144525110790154 0 0 0
50 1 10.860949778405214 2.7140610809640147 8.144525110790154 -1 0 0
63 1 9.50321233380391 1.3563254466780963 9.502262555390248 0 0 0
54 1 1.3567876661960898 4.071800335883117 9.502262555390248 0 0 0
67 1 2.7145251107973927 5.429535970169035 8.144525110790154 0 0 0
62 1 6.787737444601304 4.071800335883117 9.502262555390248 0 0 0
75 1 8.145474889202607 5.429535970169035 8.144525110790154 0 0 0
71 1 4.072262555398697 6.787275225088136 9.50226255539025 0 0 0
74 1 5.43 8.145010859374057 8.144525110790154 0 0 0
66 1 10.860949778405214 8.145010859374057 8.144525110790154 -1 0 0
79 1 9.50321233380391 6.787275225088136 9.50226255539025 0 0 0
70 1 1.3567876661960898 9.502750114293159 9.502262555390248 0 0 0
83 1 2.7145251107973927 10.86048574857908 8.144525110790152 0 0 0
78 1 6.787737444601304 9.502750114293159 9.502262555390248 0 0 0
91 1 8.145474889202607 10.86048574857908 8.144525110790152 0 0 0
87 1 4.072262555398697 12.21822500349818 9.502262555390248 0 0 0
90 1 5.43 13.575960637784098 8.144525110790154 0 0 0
82 1 10.860949778405214 13.575960637784098 8.144525110790154 -1 0 0
95 1 9.50321233380391 12.21822500349818 9.502262555390248 0 0 0
51 1 2.7145251107973927 16.291435526989115 8.144525110790154 0 -1 0
86 1 1.3567876661960898 14.933699892703203 9.502262555390248 0 0 0
59 1 8.145474889202607 16.291435526989115 8.144525110790154 0 -1 0
94 1 6.787737444601304 14.933699892703203 9.502262555390248 0 0 0
100 1 2.7145251107973927 2.7140647015972004 10.859999999990345 0 0 0
108 1 8.145474889202607 2.7140647015972004 10.859999999990345 0 0 0
121 1 5.43 5.4295395908022215 10.859999999990345 0 0 0
113 1 10.860949778405214 5.4295395908022215 10.859999999990345 -1 0 0
116 1 2.7145251107973927 8.145014480007243 10.859999999990343 0 0 0
124 1 8.145474889202607 8.145014480007243 10.859999999990343 0 0 0
137 1 5.43 10.860489369212265 10.859999999990343 0 0 0
129 1 10.860949778405214 10.860489369212265 10.859999999990343 -1 0 0
132 1 2.7145251107973927 13.575964258417283 10.859999999990345 0 0 0
140 1 8.145474889202607 13.575964258417283 10.859999999990345 0 0 0
105 1 5.43 16.291439147622302 10.859999999990345 0 -1 0
97 1 10.860949778405214 16.291439147622302 10.859999999990345 -1 -1 0
101 1 1.3567876661960898 1.3563290673112818 12.217737444590442 0 0 0
106 1 5.43 2.714068322230386 13.57547488919054 0 0 0
109 1 6.787737444601304 1.3563290673112818 12.217737444590442 0 0 0
98 1 10.860949778405214 2.714068322230386 13.57547488919054 -1 0 0
115 1 2.7145251107973927 5.429543211435407 13.57547488919054 0 0 0
104 1 4.072262555398697 4.071803956516303 12.217737444590442 0 0 0
123 1 8.145474889202607 5.429543211435407 13.57547488919054 0 0 0
112 1 9.50321233380391 4.071803956516303 12.217737444590442 0 0 0
117 1 1.3567876661960898 6.787278845721322 12.217737444590442 0 0 0
122 1 5.43 8.145018100640428 13.575474889190538 0 0 0
125 1 6.787737444601304 6.787278845721322 12.217737444590442 0 0 0
114 1 10.860949778405214 8.145018100640428 13.575474889190538 -1 0 0
131 1 2.7145251107973927 10.86049298984545 13.575474889190538 0 0 0
120 1 4.072262555398697 9.502753734926344 12.217737444590442 0 0 0
139 1 8.145474889202607 10.86049298984545 13.575474889190538 0 0 0
128 1 9.50321233380391 9.502753734926344 12.217737444590442 0 0 0
133 1 1.3567876661960898 12.218228624131365 12.217737444590442 0 0 0
138 1 5.43 13.57596787905047 13.57547488919054 0 0 0
141 1 6.787737444601304 12.218228624131365 12.217737444590442 0 0 0
130 1 10.860949778405214 13.57596787905047 13.57547488919054 -1 0 0
99 1 2.7145251107973927 16.291442768255486 13.57547488919054 0 -1 0
136 1 4.072262555398697 14.933703513336388 12.217737444590442 0 0 0
107 1 8.145474889202607 16.291442768255486 13.57547488919054 0 -1 0
144 1 9.50321233380391 14.933703513336388 12.217737444590442 0 0 0
148 1 2.7145251107973927 2.714071942863572 16.29094977839073 0 0 0
103 1 4.072262555398697 1.3563326879444675 14.93321233379063 0 0 0
156 1 8.145474889202607 2.714071942863572 16.29094977839073 0 0 0
111 1 9.50321233380391 1.3563326879444675 14.93321233379063 0 0 0
102 1 1.3567876661960898 4.071807577149489 14.93321233379063 0 0 0
169 1 5.43 5.429546832068593 16.29094977839073 0 0 0
110 1 6.787737444601304 4.071807577149489 14.93321233379063 0 0 0
161 1 10.860949778405214 5.429546832068593 16.29094977839073 -1 0 0
164 1 2.7145251107973927 8.145021721273613 16.29094977839073 0 0 0
119 1 4.072262555398697 6.787282466354507 14.93321233379063 0 0 0
172 1 8.145474889202607 8.145021721273613 16.29094977839073 0 0 0
127 1 9.50321233380391 6.787282466354507 14.93321233379063 0 0 0
118 1 1.3567876661960898 9.502757355559531 14.93321233379063 0 0 0
185 1 5.43 10.860496610478636 16.290949778390733 0 0 0
126 1 6.787737444601304 9.502757355559531 14.93321233379063 0 0 0
177 1 10.860949778405214 10.860496610478636 16.290949778390733 -1 0 0
180 1 2.7145251107973927 13.575971499683655 16.29094977839073 0 0 0
135 1 4.072262555398697 12.21823224476455 14.93321233379063 0 0 0
188 1 8.145474889202607 13.575971499683655 16.29094977839073 0 0 0
143 1 9.50321233380391 12.21823224476455 14.93321233379063 0 0 0
134 1 1.3567876661960898 14.933707133969573 14.93321233379063 0 0 0
153 1 5.43 16.291446388888673 16.29094977839073 0 -1 0
142 1 6.787737444601304 14.933707133969573 14.93321233379063 0 0 0
145 1 10.860949778405214 16.291446388888673 16.29094977839073 -1 -1 0
149 1 1.3567876661960898 1.356336308577653 17.648687222990823 0 0 0
154 1 5.43 2.714075563496757 19.006424667590924 0 0 0
157 1 6.787737444601304 1.356336308577653 17.648687222990823 0 0 0
146 1 10.860949778405214 2.714075563496757 19.006424667590924 -1 0 0
163 1 2.7145251107973927 5.429550452701778 19.00642466759092 0 0 0
152 1 4.072262555398697 4.071811197782674 17.648687222990826 0 0 0
171 1 8.145474889202607 5.429550452701778 19.00642466759092 0 0 0
160 1 9.50321233380391 4.071811197782674 17.648687222990826 0 0 0
165 1 1.3567876661960898 6.7872860869876925 17.648687222990823 0 0 0
170 1 5.43 8.1450253419068 19.006424667590924 0 0 0
173 1 6.787737444601304 6.7872860869876925 17.648687222990823 0 0 0
162 1 10.860949778405214 8.1450253419068 19.006424667590924 -1 0 0
179 1 2.7145251107973927 10.860500231111821 19.006424667590924 0 0 0
168 1 4.072262555398697 9.502760976192716 17.648687222990826 0 0 0
187 1 8.145474889202607 10.860500231111821 19.006424667590924 0 0 0
176 1 9.50321233380391 9.502760976192716 17.648687222990826 0 0 0
181 1 1.3567876661960898 12.218235865397736 17.648687222990823 0 0 0
186 1 5.43 13.57597512031684 19.00642466759092 0 0 0
189 1 6.787737444601304 12.218235865397736 17.648687222990823 0 0 0
178 1 10.860949778405214 13.57597512031684 19.00642466759092 -1 0 0
147 1 2.7145251107973927 16.29145000952186 19.00642466759092 0 -1 0
184 1 4.072262555398697 14.933710754602759 17.648687222990823 0 0 0
155 1 8.145474889202607 16.29145000952186 19.00642466759092 0 -1 0
192 1 9.50321233380391 14.933710754602759 17.648687222990823 0 0 0
4 1 2.7145251107973927 2.714050219064458 21.72189955679112 0 0 -1
151 1 4.072262555398697 1.3563399292108387 20.364162112191014 0 0 0
12 1 8.145474889202607 2.714050219064458 21.72189955679112 0 0 -1
159 1 9.50321233380391 1.3563399292108387 20.364162112191014 0 0 0
150 1 1.3567876661960898 4.071814818415859 20.364162112191014 0 0 0
25 1 5.43 5.429525108269479 21.72189955679112 0 0 -1
158 1 6.787737444601304 4.071814818415859 20.364162112191014 0 0 0
17 1 10.860949778405214 5.429525108269479 21.72189955679112 -1 0 -1
20 1 2.7145251107973927 8.1449999974745 21.72189955679112 0 0 -1
167 1 4.072262555398697 6.787289707620879 20.364162112191014 0 0 0
28 1 8.145474889202607 8.1449999974745 21.72189955679112 0 0 -1
175 1 9.50321233380391 6.787289707620879 20.364162112191014 0 0 0
166 1 1.3567876661960898 9.502764596825902 20.364162112191014 0 0 0
41 1 5.43 10.860474886679523 21.72189955679112 0 0 -1
174 1 6.787737444601304 9.502764596825902 20.364162112191014 0 0 0
33 1 10.860949778405214 10.860474886679523 21.72189955679112 -1 0 -1
36 1 2.7145251107973927 13.575949775884542 21.72189955679112 0 0 -1
183 1 4.072262555398697 12.218239486030923 20.36416211219101 0 0 0
44 1 8.145474889202607 13.575949775884542 21.72189955679112 0 0 -1
191 1 9.50321233380391 12.218239486030923 20.36416211219101 0 0 0
182 1 1.3567876661960898 14.933714375235944 20.364162112191014 0 0 0
9 1 5.43 16.291424665089558 21.72189955679112 0 -1 -1
190 1 6.787737444601304 14.933714375235944 20.364162112191014 0 0 0
1 1 10.860949778405214 16.291424665089558 21.72189955679112 -1 -1 -1

Velocities

5 0 0 0
13 0 0 0
8 0 0 0
16 0 0 0
21 0 0 0
29 0 0 0
24 0 0 0
32 0 0 0
37 0 0 0
45 0 0 0
40 0 0 0
48 0 0 0
7 0 0 0
10 0 0 0
2 0 0 0
15 0 0 0
6 0 0 0
19 0 0 0
14 0 0 0
27 0 0 0
23 0 0 0
26 0 0 0
18 0 0 0
31 0 0 0
22 0 0 0
35 0 0 0
30 0 0 0
43 0 0 0
39 0 0 0
42 0 0 0
34 0 0 0
47 0 0 0
3 0 0 0
38 0 0 0
11 0 0 0
46 0 0 0
52 0 0 0
53 0 0 0
60 0 0 0
61 0 0 0
56 0 0 0
73 0 0 0
64 0 0 0
65 0 0 0
68 0 0 0
69 0 0 0
76 0 0 0
77 0 0 0
72 0 0 0
89 0 0 0
80 0 0 0
81 0 0 0
84 0 0 0
85 0 0 0
92 0 0 0
93 0 0 0
57 0 0 0
88 0 0 0
49 0 0 0
96 0 0 0
55 0 0 0
58 0 0 0
50 0 0 0
63 0 0 0
54 0 0 0
67 0 0 0
62 0 0 0
75 0 0 0
71 0 0 0
74 0 0 0
66 0 0 0
79 0 0 0
70 0 0 0
83 0 0 0
78 0 0 0
91 0 0 0
87 0 0 0
90 0 0 0
82 0 0 0
95 0 0 0
51 0 0 0
86 0 0 0
59 0 0 0
94 0 0 0
100 0 0 0
108 0 0 0
121 0 0 0
113 0 0 0
116 0 0 0
124 0 0 0
137 0 0 0
129 0 0 0
132 0 0 0
140 0 0 0
105 0 0 0
97 0 0 0
101 0 0 0
106 0 0 0
109 0 0 0
98 0 0 0
115 0 0 0
104 0 0 0
123 0 0 0
112 0 0 0
117 0 0 0
122 0 0 0
125 0 0 0
114 0 0 0
131 0 0 0
120 0 0 0
139 0 0 0
128 0 0 0
133 0 0 0
138 0 0 0
141 0 0 0
130 0 0 0
99 0 0 0
136 0 0 0
107 0 0 0
144 0 0 0
148 0 0 0
103 0 0 0
156 0 0 0
111 0 0 0
102 0 0 0
169 0 0 0
110 0 0 0
161 0 0 0
164 0 0 0
119 0 0 0
172 0 0 0
127 0 0 0
118 0 0 0
185 0 0 0
126 0 0 0
177 0 0 0
180 0 0 0
135 0 0 0
188 0 0 0
143 0 0 0
134 0 0 0
153 0 0 0
142 0 0 0
145 0 0 0
149 0 0 0
154 0 0 0
157 0 0 0
146 0 0 0
163 0 0 0
152 0 0 0
171 0 0 0
160 0 0 0
165 0 0 0
170 0 0 0
173 0 0 0
162 0 0 0
179 0 0 0
168 0 0 0
187 0 0 0
176 0 0 0
181 0 0 0
186 0 0 0
189 0 0 0
178 0 0 0
147 0 0 0
184 0 0 0
155 0 0 0
192 0 0 0
4 0 0 0
151 0 0 0
12 0 0 0
159 0 0 0
150 0 0 0
25 0 0 0
158 0 0 0
17 0 0 0
20 0 0 0
167 0 0 0
28 0 0 0
175 0 0 0
166 0 0 0
41 0 0 0
174 0 0 0
33 0 0 0
36 0 0 0
183 0 0 0
44 0 0 0
191 0 0 0
182 0 0 0
9 0 0 0
190 0 0 0
1 0 0 0
