27
Lattice="9.594147357 2.701e-06 0.0 4.797070996 8.308770947 0.0 0.0 0.0 20.0" Properties=species:S:1:pos:R:3:forces:R:3 energy=-6825.823685134802 virial="0.13613621184424343 0.0 -0.0 0.0 0.13613621184424343 0.0 -0.0 0.0 -0.3893788424792339" stress="135.0189940242638 0.0 -0.0 0.0 135.0189940242638 0.0 -0.0 0.0 -386.1833592521954" job_done=T pbc="T T T"
Mo      -0.00096082       0.00488892       0.05435862      -0.00002340       0.00000129       0.00028591
S        1.59806318       0.92808822       1.58463575       0.00000951      -0.00006891      -0.00013473
Se       1.59806307       0.92808875      -1.63899605       0.00000026      -0.00007225      -0.00015170
Mo       3.19708884       0.00488704       0.05435900      -0.00005219       0.00006993       0.00028616
S        4.79610594       0.92808805       1.58464242       0.00002803      -0.00004551      -0.00020415
Se       4.79610645       0.92808943      -1.63900032       0.00002700      -0.00005399      -0.00010104
Mo       6.39513181       0.00488802       0.05435923       0.00007045       0.00005348       0.00028642
S        7.99416394       0.92808964       1.58463807      -0.00004165      -0.00008587      -0.00014372
Se       7.99416291       0.92809152      -1.63899746      -0.00003162      -0.00008639      -0.00012933
Mo       1.59806076       2.77447962       0.05435864       0.00001697      -0.00001080       0.00030288
S        3.19708246       3.69767229       1.58463770       0.00002828       0.00005194      -0.00013833
Se       3.19708312       3.69767259      -1.63899680       0.00002700       0.00005939      -0.00016327
Mo       4.79610809       2.77447781       0.05435908       0.00001491       0.00003291       0.00031496
S        6.39513462       3.69767671       1.58463825      -0.00003600      -0.00000360      -0.00011030
Se       6.39513499       3.69767740      -1.63899371      -0.00002905       0.00000977      -0.00020466
Mo       7.99416076       2.77448243       0.05436082      -0.00001517      -0.00003265       0.00028282
S        9.59318658       3.69767701       1.58463658       0.00000283       0.00002211      -0.00007405
Se       9.59318443       3.69767579      -1.63899522       0.00000129       0.00003342      -0.00022960
Mo       3.19708139       5.54406811       0.05435813       0.00003600      -0.00000411       0.00030236
S        4.79611072       6.46726484       1.58463609      -0.00004757       0.00001877      -0.00013550
Se       4.79611119       6.46726478      -1.63899656      -0.00004139       0.00002134      -0.00013678
Mo       6.39513788       5.54407189       0.05436035      -0.00007559      -0.00003137       0.00028591
S        7.99415973       6.46726650       1.58463944      -0.00000926       0.00005245      -0.00012033
Se       7.99415668       6.46726671      -1.63899801       0.00000154       0.00004628      -0.00018615
Mo       9.59318171       5.54407355       0.05435784       0.00004885      -0.00008253       0.00029002
S       11.19220471       6.46726237       1.58464007       0.00005168       0.00005785      -0.00016224
Se      11.19220592       6.46726457      -1.63900196       0.00003831       0.00004705      -0.00011133
