(written by ASE)

192 atoms
1 atom types

0.0      10.861899556810426  xlo xhi
0.0      16.292849335215642  ylo yhi
0.0      21.723799113620853  zlo zhi
                      0 -2.1723799113620851e-05                       0  xy xz yz

Atoms # atomic

     1   1 -0.00094977650565651118  -0.0014246676078202446  -0.0018995568104266181
     2   1 -0.00095249198054571382      2.7140502215947873      2.7135753323921796
     3   1      2.7145223972220602  -0.0014246676078202454      2.7135753323921796
     4   1      2.7145251126969496      2.7140502215947873  -0.0018995568104266181
     5   1      1.3567863103582021      1.3563127769934833      1.3558378877908768
     6   1      1.3567835948833129      4.0717876661960899      4.0713127769934827
     7   1      4.0722584840859204      1.3563127769934833      4.0713127769934827
     8   1      4.0722611995608089      4.0717876661960899      1.3558378877908768
     9   1      5.4300000018995567  -0.0014246676078202452  -0.0018995568104266181
    10   1      5.4299972864246673      2.7140502215947873      2.7135753323921796
    11   1      8.1454721756272743  -0.0014246676078202463      2.7135753323921796
    12   1      8.1454748911021628      2.7140502215947873  -0.0018995568104266181
    13   1      6.7877360887634159      1.3563127769934833      1.3558378877908768
    14   1      6.7877333732885274      4.0717876661960899      4.0713127769934827
    15   1      9.5032082624911336      1.3563127769934833      4.0713127769934827
    16   1      9.5032109779660221      4.0717876661960899      1.3558378877908768
    17   1 -0.00094977650565651118      5.4295251107973943  -0.0018995568104266181
    18   1 -0.00095249198054571382      8.1450000000000014      2.7135753323921796
    19   1      2.7145223972220602      5.4295251107973943      2.7135753323921796
    20   1      2.7145251126969496      8.1450000000000014  -0.0018995568104266181
    21   1      1.3567863103582021      6.7872625553986952      1.3558378877908768
    22   1      1.3567835948833129      9.5027374446013031      4.0713127769934827
    23   1      4.0722584840859204      6.7872625553986952      4.0713127769934827
    24   1      4.0722611995608089      9.5027374446013031      1.3558378877908768
    25   1      5.4300000018995567      5.4295251107973943  -0.0018995568104266181
    26   1      5.4299972864246673      8.1450000000000014      2.7135753323921796
    27   1      8.1454721756272743      5.4295251107973943      2.7135753323921796
    28   1      8.1454748911021628      8.1450000000000014  -0.0018995568104266181
    29   1      6.7877360887634159      6.7872625553986952      1.3558378877908768
    30   1      6.7877333732885274      9.5027374446013031      4.0713127769934827
    31   1      9.5032082624911336      6.7872625553986952      4.0713127769934827
    32   1      9.5032109779660221      9.5027374446013031      1.3558378877908768
    33   1 -0.00094977650565651118       10.86047488920261  -0.0018995568104266181
    34   1 -0.00095249198054571382      13.575949778405214      2.7135753323921796
    35   1      2.7145223972220602       10.86047488920261      2.7135753323921796
    36   1      2.7145251126969496      13.575949778405214  -0.0018995568104266181
    37   1      1.3567863103582021       12.21821233380391      1.3558378877908768
    38   1      1.3567835948833129      14.933687223006519      4.0713127769934827
    39   1      4.0722584840859204       12.21821233380391      4.0713127769934827
    40   1      4.0722611995608089      14.933687223006519      1.3558378877908768
    41   1      5.4300000018995567       10.86047488920261  -0.0018995568104266181
    42   1      5.4299972864246673      13.575949778405214      2.7135753323921796
    43   1      8.1454721756272743       10.86047488920261      2.7135753323921796
    44   1      8.1454748911021628      13.575949778405214  -0.0018995568104266181
    45   1      6.7877360887634159       12.21821233380391      1.3558378877908768
    46   1      6.7877333732885274      14.933687223006519      4.0713127769934827
    47   1      9.5032082624911336       12.21821233380391      4.0713127769934827
    48   1      9.5032109779660221      14.933687223006519      1.3558378877908768
    49   1 -0.00095520745543491647  -0.0014246676078202463      5.4290502215947853
    50   1 -0.00095792293032411901      2.7140502215947873      8.1445251107973942
    51   1      2.7145169662722819  -0.0014246676078202456      8.1445251107973942
    52   1      2.7145196817471713      2.7140502215947873      5.4290502215947853
    53   1      1.3567808794084235      1.3563127769934833      6.7867876661960898
    54   1      1.3567781639335343      4.0717876661960899      9.5022625553986959
    55   1      4.0722530531361416      1.3563127769934833      9.5022625553986959
    56   1       4.072255768611031      4.0717876661960899      6.7867876661960898
    57   1      5.4299945709497779  -0.0014246676078202456      5.4290502215947853
    58   1      5.4299918554748885      2.7140502215947873      8.1445251107973942
    59   1      8.1454667446774955  -0.0014246676078202459      8.1445251107973942
    60   1      8.1454694601523858      2.7140502215947873      5.4290502215947853
    61   1       6.787730657813638      1.3563127769934833      6.7867876661960898
    62   1      6.7877279423387487      4.0717876661960899      9.5022625553986959
    63   1      9.5032028315413548      1.3563127769934833      9.5022625553986959
    64   1      9.5032055470162433      4.0717876661960899      6.7867876661960898
    65   1 -0.00095520745543491647      5.4295251107973943      5.4290502215947853
    66   1 -0.00095792293032411901      8.1450000000000014      8.1445251107973942
    67   1      2.7145169662722819      5.4295251107973943      8.1445251107973942
    68   1      2.7145196817471713      8.1450000000000014      5.4290502215947853
    69   1      1.3567808794084235      6.7872625553986952      6.7867876661960898
    70   1      1.3567781639335343      9.5027374446013031      9.5022625553986959
    71   1      4.0722530531361416      6.7872625553986952      9.5022625553986959
    72   1       4.072255768611031      9.5027374446013031      6.7867876661960898
    73   1      5.4299945709497779      5.4295251107973943      5.4290502215947853
    74   1      5.4299918554748885      8.1450000000000014      8.1445251107973942
    75   1      8.1454667446774955      5.4295251107973943      8.1445251107973942
    76   1      8.1454694601523858      8.1450000000000014      5.4290502215947853
    77   1       6.787730657813638      6.7872625553986952      6.7867876661960898
    78   1      6.7877279423387487      9.5027374446013031      9.5022625553986959
    79   1      9.5032028315413548      6.7872625553986952      9.5022625553986959
    80   1      9.5032055470162433      9.5027374446013031      6.7867876661960898
    81   1 -0.00095520745543491647       10.86047488920261      5.4290502215947853
    82   1 -0.00095792293032411901      13.575949778405214      8.1445251107973942
    83   1      2.7145169662722819       10.86047488920261      8.1445251107973942
    84   1      2.7145196817471713      13.575949778405214      5.4290502215947853
    85   1      1.3567808794084235       12.21821233380391      6.7867876661960898
    86   1      1.3567781639335343      14.933687223006519      9.5022625553986959
    87   1      4.0722530531361416       12.21821233380391      9.5022625553986959
    88   1       4.072255768611031      14.933687223006519      6.7867876661960898
    89   1      5.4299945709497779       10.86047488920261      5.4290502215947853
    90   1      5.4299918554748885      13.575949778405214      8.1445251107973942
    91   1      8.1454667446774955       10.86047488920261      8.1445251107973942
    92   1      8.1454694601523858      13.575949778405214      5.4290502215947853
    93   1       6.787730657813638       12.21821233380391      6.7867876661960898
    94   1      6.7877279423387487      14.933687223006519      9.5022625553986959
    95   1      9.5032028315413548       12.21821233380391      9.5022625553986959
    96   1      9.5032055470162433      14.933687223006519      6.7867876661960898
    97   1 -0.00096063840521332165  -0.0014246676078202463      10.859999999999999
    98   1  -0.0009633538801025243      2.7140502215947873      13.575474889202608
    99   1      2.7145115353225036  -0.0014246676078202463      13.575474889202608
   100   1      2.7145142507973925      2.7140502215947873      10.859999999999999
   101   1      1.3567754484586452      1.3563127769934833      12.217737444601305
   102   1       1.356772732983756      4.0717876661960899      14.933212333803906
   103   1      4.0722476221863637      1.3563127769934833      14.933212333803906
   104   1      4.0722503376612522      4.0717876661960899      12.217737444601305
   105   1              5.42998914  -0.0014246676078202461      10.859999999999999
   106   1      5.4299864245251106      2.7140502215947873      13.575474889202608
   107   1      8.1454613137277168  -0.0014246676078202461      13.575474889202608
   108   1       8.145464029202607      2.7140502215947873      10.859999999999999
   109   1      6.7877252268638593      1.3563127769934833      12.217737444601305
   110   1      6.7877225113889708      4.0717876661960899      14.933212333803906
   111   1       9.503197400591576      1.3563127769934833      14.933212333803906
   112   1      9.5032001160664663      4.0717876661960899      12.217737444601305
   113   1 -0.00096063840521332165      5.4295251107973943      10.859999999999999
   114   1  -0.0009633538801025243      8.1450000000000014      13.575474889202608
   115   1      2.7145115353225036      5.4295251107973943      13.575474889202608
   116   1      2.7145142507973925      8.1450000000000014      10.859999999999999
   117   1      1.3567754484586452      6.7872625553986952      12.217737444601305
   118   1       1.356772732983756      9.5027374446013031      14.933212333803906
   119   1      4.0722476221863637      6.7872625553986952      14.933212333803906
   120   1      4.0722503376612522      9.5027374446013031      12.217737444601305
   121   1              5.42998914      5.4295251107973943      10.859999999999999
   122   1      5.4299864245251106      8.1450000000000014      13.575474889202608
   123   1      8.1454613137277168      5.4295251107973943      13.575474889202608
   124   1       8.145464029202607      8.1450000000000014      10.859999999999999
   125   1      6.7877252268638593      6.7872625553986952      12.217737444601305
   126   1      6.7877225113889708      9.5027374446013031      14.933212333803906
   127   1       9.503197400591576      6.7872625553986952      14.933212333803906
   128   1      9.5032001160664663      9.5027374446013031      12.217737444601305
   129   1 -0.00096063840521332165       10.86047488920261      10.859999999999999
   130   1  -0.0009633538801025243      13.575949778405214      13.575474889202608
   131   1      2.7145115353225036       10.86047488920261      13.575474889202608
   132   1      2.7145142507973925      13.575949778405214      10.859999999999999
   133   1      1.3567754484586452       12.21821233380391      12.217737444601305
   134   1       1.356772732983756      14.933687223006519      14.933212333803906
   135   1      4.0722476221863637       12.21821233380391      14.933212333803906
   136   1      4.0722503376612522      14.933687223006519      12.217737444601305
   137   1              5.42998914       10.86047488920261      10.859999999999999
   138   1      5.4299864245251106      13.575949778405214      13.575474889202608
   139   1      8.1454613137277168       10.86047488920261      13.575474889202608
   140   1       8.145464029202607      13.575949778405214      10.859999999999999
   141   1      6.7877252268638593       12.21821233380391      12.217737444601305
   142   1      6.7877225113889708      14.933687223006519      14.933212333803906
   143   1       9.503197400591576       12.21821233380391      14.933212333803906
   144   1      9.5032001160664663      14.933687223006519      12.217737444601305
   145   1 -0.00096606935499172683  -0.0014246676078202459      16.290949778405214
   146   1 -0.00096878482988092948      2.7140502215947873      19.006424667607821
   147   1      2.7145061043727252  -0.0014246676078202465      19.006424667607821
   148   1      2.7145088198476142      2.7140502215947873      16.290949778405214
   149   1      1.3567700175088668      1.3563127769934833      17.648687223006515
   150   1      1.3567673020339777      4.0717876661960899      20.364162112209119
   151   1      4.0722421912365849      1.3563127769934833      20.364162112209119
   152   1      4.0722449067114743      4.0717876661960899      17.648687223006515
   153   1      5.4299837090502212  -0.0014246676078202463      16.290949778405214
   154   1      5.4299809935753318      2.7140502215947873      19.006424667607821
   155   1      8.1454558827779397  -0.0014246676078202456      19.006424667607821
   156   1      8.1454585982528283      2.7140502215947873      16.290949778405214
   157   1      6.7877197959140814      1.3563127769934833      17.648687223006515
   158   1       6.787717080439192      4.0717876661960899      20.364162112209119
   159   1      9.5031919696417972      1.3563127769934833      20.364162112209119
   160   1      9.5031946851166875      4.0717876661960899      17.648687223006515
   161   1 -0.00096606935499172683      5.4295251107973943      16.290949778405214
   162   1 -0.00096878482988092948      8.1450000000000014      19.006424667607821
   163   1      2.7145061043727252      5.4295251107973943      19.006424667607821
   164   1      2.7145088198476142      8.1450000000000014      16.290949778405214
   165   1      1.3567700175088668      6.7872625553986952      17.648687223006515
   166   1      1.3567673020339777      9.5027374446013031      20.364162112209119
   167   1      4.0722421912365849      6.7872625553986952      20.364162112209119
   168   1      4.0722449067114743      9.5027374446013031      17.648687223006515
   169   1      5.4299837090502212      5.4295251107973943      16.290949778405214
   170   1      5.4299809935753318      8.1450000000000014      19.006424667607821
   171   1      8.1454558827779397      5.4295251107973943      19.006424667607821
   172   1      8.1454585982528283      8.1450000000000014      16.290949778405214
   173   1      6.7877197959140814      6.7872625553986952      17.648687223006515
   174   1       6.787717080439192      9.5027374446013031      20.364162112209119
   175   1      9.5031919696417972      6.7872625553986952      20.364162112209119
   176   1      9.5031946851166875      9.5027374446013031      17.648687223006515
   177   1 -0.00096606935499172683       10.86047488920261      16.290949778405214
   178   1 -0.00096878482988092948      13.575949778405214      19.006424667607821
   179   1      2.7145061043727252       10.86047488920261      19.006424667607821
   180   1      2.7145088198476142      13.575949778405214      16.290949778405214
   181   1      1.3567700175088668       12.21821233380391      17.648687223006515
   182   1      1.3567673020339777      14.933687223006519      20.364162112209119
   183   1      4.0722421912365849       12.21821233380391      20.364162112209119
   184   1      4.0722449067114743      14.933687223006519      17.648687223006515
   185   1      5.4299837090502212       10.86047488920261      16.290949778405214
   186   1      5.4299809935753318      13.575949778405214      19.006424667607821
   187   1      8.1454558827779397       10.86047488920261      19.006424667607821
   188   1      8.1454585982528283      13.575949778405214      16.290949778405214
   189   1      6.7877197959140814       12.21821233380391      17.648687223006515
   190   1       6.787717080439192      14.933687223006519      20.364162112209119
   191   1      9.5031919696417972       12.21821233380391      20.364162112209119
   192   1      9.5031946851166875      14.933687223006519      17.648687223006515


Velocities

     1                       0                       0                       0
     2                       0                       0                       0
     3                       0                       0                       0
     4                       0                       0                       0
     5                       0                       0                       0
     6                       0                       0                       0
     7                       0                       0                       0
     8                       0                       0                       0
     9                       0                       0                       0
    10                       0                       0                       0
    11                       0                       0                       0
    12                       0                       0                       0
    13                       0                       0                       0
    14                       0                       0                       0
    15                       0                       0                       0
    16                       0                       0                       0
    17                       0                       0                       0
    18                       0                       0                       0
    19                       0                       0                       0
    20                       0                       0                       0
    21                       0                       0                       0
    22                       0                       0                       0
    23                       0                       0                       0
    24                       0                       0                       0
    25                       0                       0                       0
    26                       0                       0                       0
    27                       0                       0                       0
    28                       0                       0                       0
    29                       0                       0                       0
    30                       0                       0                       0
    31                       0                       0                       0
    32                       0                       0                       0
    33                       0                       0                       0
    34                       0                       0                       0
    35                       0                       0                       0
    36                       0                       0                       0
    37                       0                       0                       0
    38                       0                       0                       0
    39                       0                       0                       0
    40                       0                       0                       0
    41                       0                       0                       0
    42                       0                       0                       0
    43                       0                       0                       0
    44                       0                       0                       0
    45                       0                       0                       0
    46                       0                       0                       0
    47                       0                       0                       0
    48                       0                       0                       0
    49                       0                       0                       0
    50                       0                       0                       0
    51                       0                       0                       0
    52                       0                       0                       0
    53                       0                       0                       0
    54                       0                       0                       0
    55                       0                       0                       0
    56                       0                       0                       0
    57                       0                       0                       0
    58                       0                       0                       0
    59                       0                       0                       0
    60                       0                       0                       0
    61                       0                       0                       0
    62                       0                       0                       0
    63                       0                       0                       0
    64                       0                       0                       0
    65                       0                       0                       0
    66                       0                       0                       0
    67                       0                       0                       0
    68                       0                       0                       0
    69                       0                       0                       0
    70                       0                       0                       0
    71                       0                       0                       0
    72                       0                       0                       0
    73                       0                       0                       0
    74                       0                       0                       0
    75                       0                       0                       0
    76                       0                       0                       0
    77                       0                       0                       0
    78                       0                       0                       0
    79                       0                       0                       0
    80                       0                       0                       0
    81                       0                       0                       0
    82                       0                       0                       0
    83                       0                       0                       0
    84                       0                       0                       0
    85                       0                       0                       0
    86                       0                       0                       0
    87                       0                       0                       0
    88                       0                       0                       0
    89                       0                       0                       0
    90                       0                       0                       0
    91                       0                       0                       0
    92                       0                       0                       0
    93                       0                       0                       0
    94                       0                       0                       0
    95                       0                       0                       0
    96                       0                       0                       0
    97                       0                       0                       0
    98                       0                       0                       0
    99                       0                       0                       0
   100                       0                       0                       0
   101                       0                       0                       0
   102                       0                       0                       0
   103                       0                       0                       0
   104                       0                       0                       0
   105                       0                       0                       0
   106                       0                       0                       0
   107                       0                       0                       0
   108                       0                       0                       0
   109                       0                       0                       0
   110                       0                       0                       0
   111                       0                       0                       0
   112                       0                       0                       0
   113                       0                       0                       0
   114                       0                       0                       0
   115                       0                       0                       0
   116                       0                       0                       0
   117                       0                       0                       0
   118                       0                       0                       0
   119                       0                       0                       0
   120                       0                       0                       0
   121                       0                       0                       0
   122                       0                       0                       0
   123                       0                       0                       0
   124                       0                       0                       0
   125                       0                       0                       0
   126                       0                       0                       0
   127                       0                       0                       0
   128                       0                       0                       0
   129                       0                       0                       0
   130                       0                       0                       0
   131                       0                       0                       0
   132                       0                       0                       0
   133                       0                       0                       0
   134                       0                       0                       0
   135                       0                       0                       0
   136                       0                       0                       0
   137                       0                       0                       0
   138                       0                       0                       0
   139                       0                       0                       0
   140                       0                       0                       0
   141                       0                       0                       0
   142                       0                       0                       0
   143                       0                       0                       0
   144                       0                       0                       0
   145                       0                       0                       0
   146                       0                       0                       0
   147                       0                       0                       0
   148                       0                       0                       0
   149                       0                       0                       0
   150                       0                       0                       0
   151                       0                       0                       0
   152                       0                       0                       0
   153                       0                       0                       0
   154                       0                       0                       0
   155                       0                       0                       0
   156                       0                       0                       0
   157                       0                       0                       0
   158                       0                       0                       0
   159                       0                       0                       0
   160                       0                       0                       0
   161                       0                       0                       0
   162                       0                       0                       0
   163                       0                       0                       0
   164                       0                       0                       0
   165                       0                       0                       0
   166                       0                       0                       0
   167                       0                       0                       0
   168                       0                       0                       0
   169                       0                       0                       0
   170                       0                       0                       0
   171                       0                       0                       0
   172                       0                       0                       0
   173                       0                       0                       0
   174                       0                       0                       0