LAMMPS data file for S1-W300 (force field Dreiding.params+ )

941  atoms
640  bonds
376  angles
101  dihedrals
5  impropers

9  atom types
10  bond types
23  angle types
25  dihedral types
2  improper types

0.000000 22.767784 xlo xhi
0.000000 22.767784 ylo yhi
0.000000 22.767784 zlo zhi

Masses

    5    12.0107   # C
    7    15.9994   # O
    9     32.066   # S
    2    1.00794   # H
    3    1.00794   # H
    8    14.0067   # N
    1    15.9994   # O
    4    12.0107   # C
    6    15.9994   # O

Atoms

    1 1   1    -0.847600000000     17.093144224    9.627208118    6.296057431  # Monomer 0; water
    2 1   2     0.423800000000     15.330254740   11.401361277    6.941432285  # Head
    3 1   2     0.423800000000     15.362661182    7.733707011    6.414777702  # Tail
    4 2   1    -0.847600000000     15.893479648    6.526814989   22.109279426
    5 2   2     0.423800000000     13.723678173    6.794615777   23.470138276  # Head
    6 2   2     0.423800000000     14.604725366    6.301384102   19.915841691  # Tail
    7 3   1    -0.847600000000     17.541140823    2.545705621   19.055255577
    8 3   2     0.423800000000     17.067092149    3.734880129   21.254969551  # Head
    9 3   2     0.423800000000     18.468386235    0.567054394   20.469914835  # Tail
   10 4   1    -0.847600000000      3.600099677   18.457773947   14.059910367
   11 4   2     0.423800000000      6.093887988   18.645616317   13.765206436  # Head
   12 4   2     0.423800000000      3.220448847   19.458727841   11.708788964  # Tail
   13 5   1    -0.847600000000     18.061845949   19.325047252   12.997827660
   14 5   2     0.423800000000     15.781079774   20.515475616   12.665876220  # Head
   15 5   2     0.423800000000     17.678221857   18.321674424   15.398143798  # Tail
   16 6   1    -0.847600000000      4.644405174    3.992183607    9.687482921
   17 6   2     0.423800000000      3.214012418    1.778501532    9.276089486  # Head
   18 6   2     0.423800000000      2.724720068    5.170851060   10.901883817  # Tail
   19 7   1    -0.847600000000     20.464124009    2.215531028   11.254666651
   20 7   2     0.423800000000     18.873746243    2.627881582   13.346045226  # Head
   21 7   2     0.423800000000     21.276913222   -0.088408676   12.172530989  # Tail
   22 8   1    -0.847600000000     10.307168362    8.635784894   18.016027621
   23 8   2     0.423800000000      8.139325755    8.009170889   16.806558617  # Head
   24 8   2     0.423800000000      9.276507849    8.209600737   20.368590255  # Tail
   25 9   1    -0.847600000000     17.774742250    0.402158907    4.740247662
   26 9   2     0.423800000000     19.418560944   -1.589475846    4.376944309  # Head
   27 9   2     0.423800000000     19.653394574    2.185262703    4.767309653  # Tail
   28 10   1    -0.847600000000      4.897696590   17.212305399   22.470044299
   29 10   2     0.423800000000      4.353931459   16.360850097   20.052735287  # Head
   30 10   2     0.423800000000      2.941651934   18.864816016   22.167365512  # Tail
   31 11   1    -0.847600000000     17.862629550   15.249128299   13.264219965
   32 11   2     0.423800000000     18.778828544   13.096730187   14.450178146  # Head
   33 11   2     0.423800000000     18.423678642   16.654353905   15.398673970  # Tail
   34 12   1    -0.847600000000      1.298008332   22.460832628    4.311662169
   35 12   2     0.423800000000     -0.851274691   23.750334076    4.937581881  # Head
   36 12   2     0.423800000000      1.861109046   22.740242027    6.789985059  # Tail
   37 13   1    -0.847600000000      5.451083514   12.865950853    8.516531327
   38 13   2     0.423800000000      3.171782787   13.425411678    7.345619039  # Head
   39 13   2     0.423800000000      6.248717512   12.099426318    6.173566704  # Tail
   40 14   1    -0.847600000000      8.749306157    7.126378352    8.476421507
   41 14   2     0.423800000000      8.008262853    9.597099799    8.937327792  # Head
   42 14   2     0.423800000000      6.237329763    6.579880079    8.755490570  # Tail
   43 15   1    -0.847600000000     20.207352716   10.762899022   22.463065398
   44 15   2     0.423800000000     20.707349171    8.268994776   22.020586496  # Head
   45 15   2     0.423800000000     21.398631304   11.176809735   20.312815899  # Tail
   46 16   1    -0.847600000000     11.011392277    0.682120417   13.122517150
   47 16   2     0.423800000000     10.428176166   -1.862619265   13.106989626  # Head
   48 16   2     0.423800000000      9.308433510    1.040362558   11.164026895  # Tail
   49 17   1    -0.847600000000     22.523865778   14.300066580    5.994162512
   50 17   2     0.423800000000     24.339679862   15.678837450    7.268867295  # Head
   51 17   2     0.423800000000     20.650607100   15.949067796    6.531935778  # Tail
   52 18   1    -0.847600000000      6.323050623    2.017271498    2.845553359
   53 18   2     0.423800000000      6.376984814    0.820381619    0.547141692  # Head
   54 18   2     0.423800000000      6.644882281   -0.130696052    4.255595026  # Tail
   55 19   1    -0.847600000000     12.412140706   15.956424245    0.826669529
   56 19   2     0.423800000000     13.748030206   14.141870531    2.006114906  # Head
   57 19   2     0.423800000000     13.841008175   18.100687466    1.237630067  # Tail
   58 20   1    -0.847600000000     21.958290909    5.885460915    0.563683803
   59 20   2     0.423800000000     19.466577609    6.037576914    0.677030384  # Head
   60 20   2     0.423800000000     21.956801719    4.329027086    2.711381054  # Tail
   61 21   1    -0.847600000000      2.649243864    6.699804090   19.305513506
   62 21   2     0.423800000000      1.157986048    8.322151555   17.921937459  # Head
   63 21   2     0.423800000000      1.373902564    4.575441637   18.407718913  # Tail
   64 22   1    -0.847600000000     13.029625527    4.800782932   19.169767483
   65 22   2     0.423800000000     14.814987499    5.370742991   17.345197421  # Head
   66 22   2     0.423800000000     14.971860820    4.017391159   20.747182703  # Tail
   67 23   1    -0.847600000000      5.872612753   11.809768477   11.746474525
   68 23   2     0.423800000000      4.754273959    9.432154523   11.815060613  # Head
   69 23   2     0.423800000000      6.057381855   11.580096546   14.385460859  # Tail
   70 24   1    -0.847600000000     14.347076093   20.763282829    9.371400299
   71 24   2     0.423800000000     15.249160581   18.408409127   10.077577970  # Head
   72 24   2     0.423800000000     16.174396861   21.589861380   10.917393330  # Tail
   73 25   1    -0.847600000000      6.424165539    2.137623085   12.305617868
   74 25   2     0.423800000000      3.838646535    2.396958557   12.896704323  # Head
   75 25   2     0.423800000000      5.860467484    2.635779110    9.825515039  # Tail
   76 26   1    -0.847600000000     11.015111565    4.507793772    0.444120306
   77 26   2     0.423800000000      9.791496162    3.482016085   -1.612548528  # Head
   78 26   2     0.423800000000      9.411720601    6.522533638    0.142434655  # Tail
   79 27   1    -0.847600000000     20.338892928   11.873502568   18.270804722
   80 27   2     0.423800000000     22.374504156   11.445239441   16.650351388  # Head
   81 27   2     0.423800000000     18.656480613   11.715336253   16.374307485  # Tail
   82 28   1    -0.847600000000     22.119557989   14.050172117   15.352882909
   83 28   2     0.423800000000     21.018769459   11.905221193   14.350515096  # Head
   84 28   2     0.423800000000     22.328468180   15.012330517   12.963779393  # Tail
   85 29   1    -0.847600000000     22.576801656    3.529845680    7.072178840
   86 29   2     0.423800000000     22.453431280    4.177891262    4.558874067  # Head
   87 29   2     0.423800000000     24.185197340    1.511673170    6.446855407  # Tail
   88 30   1    -0.847600000000     16.247100419    3.330554919    7.823344304
   89 30   2     0.423800000000     17.526545803    3.574422279    5.525431377  # Head
   90 30   2     0.423800000000     15.491159610    0.906196407    7.305874238  # Tail
   91 31   1    -0.847600000000     11.808159776    7.765089414   11.136079005
   92 31   2     0.423800000000     13.730978359    9.337371977   12.099317525  # Head
   93 31   2     0.423800000000     10.389362023    8.319533755   13.209594600  # Tail
   94 32   1    -0.847600000000     11.288060188    8.066164745   21.670090172
   95 32   2     0.423800000000     12.121467667   10.548099030   21.894969685  # Head
   96 32   2     0.423800000000     10.754374592    7.604594660   24.159326838  # Tail
   97 33   1    -0.847600000000     21.935057001    8.768394617   12.578998839
   98 33   2     0.423800000000     22.473044361    9.224672439   15.005092708  # Head
   99 33   2     0.423800000000     20.092192291   10.586927328   12.765355715  # Tail
  100 34   1    -0.847600000000      3.847169901   17.627678129    9.703597626
  101 34   2     0.423800000000      1.547282383   17.959925686   10.641968553  # Head
  102 34   2     0.423800000000      5.202515460   17.968763432   11.826985633  # Tail
  103 35   1    -0.847600000000     11.269408434    3.219367920   10.022731928
  104 35   2     0.423800000000     11.256331678    3.810952299    7.468174625  # Head
  105 35   2     0.423800000000     10.076209755    0.996387044    9.401059500  # Tail
  106 36   1    -0.847600000000      5.103194045   22.699283125    6.528291551
  107 36   2     0.423800000000      3.664577697   21.792646692    8.507267747  # Head
  108 36   2     0.423800000000      3.191936520   22.555916679    4.797801784  # Tail
  109 37   1    -0.847600000000     17.868224620   17.462043890    4.490172640
  110 37   2     0.423800000000     17.829576386   19.100809087    2.473003024  # Head
  111 37   2     0.423800000000     15.632700305   18.441928723    5.511570641  # Tail
  112 38   1    -0.847600000000      8.740228183    4.121364523   15.480067131
  113 38   2     0.423800000000      6.283697657    4.028637383   16.358574573  # Head
  114 38   2     0.423800000000      9.698902338    2.871981277   17.574228140  # Tail
  115 39   1    -0.847600000000     14.686191327    1.329619846   21.833117430
  116 39   2     0.423800000000     14.693507713   -1.185924216   21.138343187  # Head
  117 39   2     0.423800000000     17.219462713    1.911459677   22.030347278  # Tail
  118 40   1    -0.847600000000      6.285726408    9.442166387   18.927337723
  119 40   2     0.423800000000      6.456951117   11.388661631   17.209648678  # Head
  120 40   2     0.423800000000      6.440520284   11.050540431   21.044357096  # Tail
  121 41   1    -0.847600000000     13.206498242   10.517131300    2.205709477
  122 41   2     0.423800000000     13.731345536   10.513035275    4.808802069  # Head
  123 41   2     0.423800000000     12.838076565    7.953909633    2.369564535  # Tail
  124 42   1    -0.847600000000     15.118547585   22.691457532   14.479457087
  125 42   2     0.423800000000     14.121546462   23.365384478   12.165458603  # Head
  126 42   2     0.423800000000     16.946206641   24.540634185   14.089508102  # Tail
  127 43   1    -0.847600000000      8.227339364   14.036599504   16.512750007
  128 43   2     0.423800000000     10.246945394   15.453370872   15.691853362  # Head
  129 43   2     0.423800000000      7.763585031   13.534423534   14.048282665  # Tail
  130 44   1    -0.847600000000     16.322047064    3.697042724   15.011162809
  131 44   2     0.423800000000     15.035869993    2.641502358   17.009079347  # Head
  132 44   2     0.423800000000     18.428193219    2.509143467   15.878579425  # Tail
  133 45   1    -0.847600000000      8.132796092    7.218102814   12.033159219
  134 45   2     0.423800000000      7.519163497    5.417520203   10.264206849  # Head
  135 45   2     0.423800000000      5.675316330    7.826061726   12.154328464  # Tail
  136 46   1    -0.847600000000      0.293007141    9.633632530    4.266399454
  137 46   2     0.423800000000      0.680949236   12.166647631    4.574752672  # Head
  138 46   2     0.423800000000      2.591812543    9.047558993    5.358027716  # Tail
  139 47   1    -0.847600000000     13.744409386   19.834879276    4.780869032
  140 47   2     0.423800000000     14.652183057   22.044121266    3.766023645  # Head
  141 47   2     0.423800000000     14.795255432   20.326434273    7.071797557  # Tail
  142 48   1    -0.847600000000      8.513712675   17.721321794    1.801808140
  143 48   2     0.423800000000      9.712259395   17.816410755   -0.496408465  # Head
  144 48   2     0.423800000000     10.760193919   17.490982971    3.087232892  # Tail
  145 49   1    -0.847600000000      9.270633773   18.592154312    6.312232271
  146 49   2     0.423800000000     10.389434293   18.919917828    4.051306042  # Head
  147 49   2     0.423800000000      9.409316521   21.003198312    7.234987079  # Tail
  148 50   1    -0.847600000000     22.369193242   21.500533567   12.831553363
  149 50   2     0.423800000000     20.599657883   19.582508244   13.241843086  # Head
  150 50   2     0.423800000000     24.248068321   19.758580460   13.224197890  # Tail
  151 51   1    -0.847600000000     11.219982056   19.416414689   15.803731000
  152 51   2     0.423800000000     12.637516873   18.928080311   17.915585409  # Head
  153 51   2     0.423800000000      9.840713594   17.178021049   15.744941600  # Tail
  154 52   1    -0.847600000000     11.892019475   16.039858933    7.320583972
  155 52   2     0.423800000000     14.055087697   17.346470179    6.789654029  # Head
  156 52   2     0.423800000000     12.904094361   14.431512155    5.595099879  # Tail
  157 53   1    -0.847600000000      9.320974935   13.422124380   12.587149619
  158 53   2     0.423800000000      9.349365932   11.996203198   14.745178006  # Head
  159 53   2     0.423800000000     11.442992783   14.700599942   13.357688869  # Tail
  160 54   1    -0.847600000000     11.327094624   12.477438381    6.222487042
  161 54   2     0.423800000000     11.331394766   11.324227280    3.915986897  # Head
  162 54   2     0.423800000000     12.491786372   10.287650132    7.082322424  # Tail
  163 55   1    -0.847600000000     17.800195464   18.063129086    8.512328463
  164 55   2     0.423800000000     17.722383284   20.099488069    6.820896445  # Head
  165 55   2     0.423800000000     16.457673777   16.663618237    6.758332948  # Tail
  166 56   1    -0.847600000000     18.957253584    5.824319636   13.354764824
  167 56   2     0.423800000000     17.707021032    5.718714873   15.641421652  # Head
  168 56   2     0.423800000000     20.052956954    8.068070644   14.191836227  # Tail
  169 57   1    -0.847600000000      0.154243470   20.759429621    7.416417474
  170 57   2     0.423800000000      2.149260201   19.483110217    8.621375190  # Head
  171 57   2     0.423800000000      1.589767976   20.947750214    5.304568826  # Tail
  172 58   1    -0.847600000000      9.077184320   22.529056173   19.416955745
  173 58   2     0.423800000000      8.935802123   21.074253177   17.212436536  # Head
  174 58   2     0.423800000000     11.611244525   23.020170793   18.941169451  # Tail
  175 59   1    -0.847600000000     18.516345124   14.347794023    7.708798563
  176 59   2     0.423800000000     18.581046816   16.690986453    6.640726061  # Head
  177 59   2     0.423800000000     16.641373795   14.777282372    9.427846189  # Tail
  178 60   1    -0.847600000000      9.031640915   17.158814085   12.251452425
  179 60   2     0.423800000000     11.581903368   16.991458859   12.081610357  # Head
  180 60   2     0.423800000000      9.453131527   15.333397665   14.001604198  # Tail
  181 61   1    -0.847600000000     15.704386005   14.462017128   21.508869327
  182 61   2     0.423800000000     17.412358952   13.352523726   19.864111116  # Head
  183 61   2     0.423800000000     17.024530199   16.625401414   21.678310594  # Tail
  184 62   1    -0.847600000000     12.581955286   14.782649737   10.564640674
  185 62   2     0.423800000000     12.719606348   13.098509634    8.575755849  # Head
  186 62   2     0.423800000000     14.698818756   16.027683365    9.802252034  # Tail
  187 63   1    -0.847600000000     14.367349053   10.792269247   18.125657159
  188 63   2     0.423800000000     13.654742497    8.464128437   19.018130740  # Head
  189 63   2     0.423800000000     16.375471297    9.802087642   16.739620389  # Tail
  190 64   1    -0.847600000000      0.693832540    0.259433506   19.561916085
  191 64   2     0.423800000000      3.101826196    1.114290288   19.359812781  # Head
  192 64   2     0.423800000000      0.427748144    1.905688288   21.577904493  # Tail
  193 65   1    -0.847600000000     22.235257343   13.567504965   21.914012714
  194 65   2     0.423800000000     19.888865519   14.737448069   21.682803499  # Head
  195 65   2     0.423800000000     22.403862529   14.235573188   19.409565577  # Tail
  196 66   1    -0.847600000000     15.876772468   11.700439057   13.237485511
  197 66   2     0.423800000000     17.288263810   10.853514227   15.156059636  # Head
  198 66   2     0.423800000000     13.742300268   10.504076568   14.056924089  # Tail
  199 67   1    -0.847600000000      2.997080487   18.354810676   19.658124201
  200 67   2     0.423800000000      3.694693383   18.410143073   17.162177309  # Head
  201 67   2     0.423800000000      0.536852781   18.358909903   18.926573429  # Tail
  202 68   1    -0.847600000000      2.030933232    9.884379315    8.596036758
  203 68   2     0.423800000000      3.177663132   10.784544757    6.498643332  # Head
  204 68   2     0.423800000000      4.421101357   10.294503867    9.507790327  # Tail
  205 69   1    -0.847600000000      1.402055416    2.785737159   16.626077549
  206 69   2     0.423800000000      0.207126965    0.515404820   16.554848906  # Head
  207 69   2     0.423800000000      2.213672974    2.045716047   14.274332037  # Tail
  208 70   1    -0.847600000000     10.228172514   22.237833886    3.109316101
  209 70   2     0.423800000000      9.559608279   22.186868341    0.603986324  # Head
  210 70   2     0.423800000000     11.665979384   20.035990333    2.742944787  # Tail
  211 71   1    -0.847600000000      2.718105596   14.733270289    3.685926532
  212 71   2     0.423800000000      4.320717191   14.241353618    1.680034815  # Head
  213 71   2     0.423800000000      3.453483046   12.795248765    5.110868253  # Tail
  214 72   1    -0.847600000000     21.004034407    5.625795643   16.264959796
  215 72   2     0.423800000000     20.052340868    7.664284586   17.477310170  # Head
  216 72   2     0.423800000000     19.962691119    3.912283914   17.855826589  # Tail
  217 73   1    -0.847600000000     17.708181979    8.354395428   10.688864256
  218 73   2     0.423800000000     20.252760186    8.544978471   10.717465563  # Head
  219 73   2     0.423800000000     17.851604236    8.006073729    8.019861599  # Tail
  220 74   1    -0.847600000000      5.858482444    7.196444523    3.591508322
  221 74   2     0.423800000000      6.098869081    4.738969058    2.881322199  # Head
  222 74   2     0.423800000000      8.237670310    7.916182753    3.849112049  # Tail
  223 75   1    -0.847600000000     16.202197793   13.567697329   16.816901451
  224 75   2     0.423800000000     17.434717481   11.622668667   18.060446807  # Head
  225 75   2     0.423800000000     14.360090579   13.435422388   18.640248017  # Tail
  226 76   1    -0.847600000000     18.171036932   14.499363639    1.206982255
  227 76   2     0.423800000000     18.901360572   16.812739183    0.135326908  # Head
  228 76   2     0.423800000000     20.726193494   14.131880018    1.415750869  # Tail
  229 77   1    -0.847600000000      7.000044253   17.882463939   16.078038677
  230 77   2     0.423800000000      5.904007126   20.189480406   15.571070670  # Head
  231 77   2     0.423800000000      4.914743416   16.847016354   14.918826551  # Tail
  232 78   1    -0.847600000000     18.083747250    3.606667604    2.701134319
  233 78   2     0.423800000000     20.419389286    3.675430459    1.599886894  # Head
  234 78   2     0.423800000000     17.106728129    4.518633619    0.479855753  # Tail
  235 79   1    -0.847600000000      8.522068388    0.817340858    7.236615384
  236 79   2     0.423800000000     10.014556948   -0.553917523    8.932008255  # Head
  237 79   2     0.423800000000     10.396867694    0.792086252    5.429446297  # Tail
  238 80   1    -0.847600000000     18.759482143   21.441274289   21.341205930
  239 80   2     0.423800000000     19.057897203   22.729657013   19.114454656  # Head
  240 80   2     0.423800000000     17.307722739   19.874368596   19.938851674  # Tail
  241 81   1    -0.847600000000      6.346875480   20.337788191   20.485273358
  242 81   2     0.423800000000      7.937393935   19.746402912   22.494521434  # Head
  243 81   2     0.423800000000      7.508164210   22.636975016   19.995170228  # Tail
  244 82   1    -0.847600000000      8.982656633   14.667776439    3.905422947
  245 82   2     0.423800000000      8.580961449   12.202488938    3.540878760  # Head
  246 82   2     0.423800000000     10.242430953   14.741107652    6.164917494  # Tail
  247 83   1    -0.847600000000     10.655281095   19.317998404    9.618433994
  248 83   2     0.423800000000     13.041394031   18.920785832   10.579710816  # Head
  249 83   2     0.423800000000     10.033433673   21.359091894   11.073790125  # Tail
  250 84   1    -0.847600000000      8.999732749   18.355096884   18.972248429
  251 84   2     0.423800000000      8.215061093   15.855628597   18.852270031  # Head
  252 84   2     0.423800000000     11.344867479   17.952450678   17.989444351  # Tail
  253 85   1    -0.847600000000     19.526595482   19.197940548   16.246918032
  254 85   2     0.423800000000     17.585002587   20.744178020   15.405670650  # Head
  255 85   2     0.423800000000     17.629025318   17.733478600   17.111732159  # Tail
  256 86   1    -0.847600000000      0.752039102   17.181143089   22.420017610
  257 86   2     0.423800000000      0.072967981   15.697901950   20.483863419  # Head
  258 86   2     0.423800000000      3.118220488   16.584767349   21.428129493  # Tail
  259 87   1    -0.847600000000     16.335169020   20.653199501   17.286563704
  260 87   2     0.423800000000     14.363527351   22.258306862   17.174769575  # Head
  261 87   2     0.423800000000     14.672281341   18.706523003   17.495460547  # Tail
  262 88   1    -0.847600000000     20.285829603    2.380394077   21.190567548
  263 88   2     0.423800000000     21.061179968    4.072249143   19.297853776  # Head
  264 88   2     0.423800000000     20.928789048    0.208925990   19.888249457  # Tail
  265 89   1    -0.847600000000      4.906215458   13.118543693   15.732291220
  266 89   2     0.423800000000      4.330883239   11.595225966   13.766219635  # Head
  267 89   2     0.423800000000      2.787374382   14.501652034   15.054484354  # Tail
  268 90   1    -0.847600000000     21.773387657   11.558280166    8.566756243
  269 90   2     0.423800000000     20.842699360    9.999266547    6.767245669  # Head
  270 90   2     0.423800000000     21.375650231    9.666911234   10.319289658  # Tail
  271 91   1    -0.847600000000      4.740572864    5.483982619   14.614036654
  272 91   2     0.423800000000      3.696996285    6.529339121   16.734539287  # Head
  273 91   2     0.423800000000      2.345603660    5.432289173   13.591036408  # Tail
  274 92   1    -0.847600000000      9.135312818   11.270628515    0.755685341
  275 92   2     0.423800000000      9.562467187    9.528191211    2.601776895  # Head
  276 92   2     0.423800000000     11.543907999   12.223934339    0.736687175  # Tail
  277 93   1    -0.847600000000      0.293788063    2.043723571    1.943168524
  278 93   2     0.423800000000      2.359816042    2.564895960    3.431414292  # Head
  279 93   2     0.423800000000      1.529712654    3.394837833    0.157966248  # Tail
  280 94   1    -0.847600000000     16.338009820    7.778085454   17.643207011
  281 94   2     0.423800000000     17.297405634    9.145987158   19.685194294  # Head
  282 94   2     0.423800000000     16.385486782    5.381432815   18.706642877  # Tail
  283 95   1    -0.847600000000     20.137151714    6.477541689    7.300699148
  284 95   2     0.423800000000     18.207393561    6.340477319    5.523787589  # Head
  285 95   2     0.423800000000     19.313890856    8.530228286    8.749949142  # Tail
  286 96   1    -0.847600000000     13.038932983   21.861174476   19.256072550
  287 96   2     0.423800000000     10.929020002   20.353371997   19.809137568  # Head
  288 96   2     0.423800000000     13.754656623   20.527442833   17.099117538  # Tail
  289 97   1    -0.847600000000     13.767572530   17.898833438   12.664027702
  290 97   2     0.423800000000     12.531536374   20.189703423   12.205061978  # Head
  291 97   2     0.423800000000     16.040292049   18.907755936   11.769240546  # Tail
  292 98   1    -0.847600000000      9.534448941    4.825834348   19.316781821
  293 98   2     0.423800000000      7.385439129    3.780223379   20.225330183  # Head
  294 98   2     0.423800000000     10.758797281    4.565963314   21.584287471  # Tail
  295 99   1    -0.847600000000      2.647251607   14.406349520   12.949755543
  296 99   2     0.423800000000      0.982630453   14.123669438   10.916505585  # Head
  297 99   2     0.423800000000      1.183709000   12.997611044   14.532654936  # Tail
  298 100   1    -0.847600000000     10.070251973    6.508192703    3.852016391
  299 100   2     0.423800000000      8.312644892    6.932087111    2.073197841  # Head
  300 100   2     0.423800000000      8.661090691    4.865210482    5.313467516  # Tail
  301 101   1    -0.847600000000     12.770311660    1.792154399    6.189652843
  302 101   2     0.423800000000     15.159927777    1.561808291    5.230106441  # Head
  303 101   2     0.423800000000     13.439453498    3.456270483    7.973874479  # Tail
  304 102   1    -0.847600000000      1.698338996    3.707754038   20.887464485
  305 102   2     0.423800000000     -0.636862505    4.056060264   21.841727435  # Head
  306 102   2     0.423800000000      0.982075630    2.470024920   18.739349817  # Tail
  307 103   1    -0.847600000000      1.636476319    6.178915034    3.542170423
  308 103   2     0.423800000000      3.332407593    7.979357878    2.827836819  # Head
  309 103   2     0.423800000000     -0.249389119    7.583101297    4.621448498  # Tail
  310 104   1    -0.847600000000     15.822267304   17.967011946    0.115643067
  311 104   2     0.423800000000     13.867970560   19.779016448    0.425627128  # Head
  312 104   2     0.423800000000     14.440614875   16.068817605    1.260216412  # Tail
  313 105   1    -0.847600000000     19.059045395    9.735975675    2.738330826
  314 105   2     0.423800000000     18.551706546    8.654217190    0.438703973  # Head
  315 105   2     0.423800000000     17.275605997    8.293713344    4.071165275  # Tail
  316 106   1    -0.847600000000      4.291373025   11.447341553    3.665925786
  317 106   2     0.423800000000      6.660935765   10.748276791    2.806216817  # Head
  318 106   2     0.423800000000      5.067548064   13.877524191    3.181920760  # Tail
  319 107   1    -0.847600000000     11.512628806   20.003406652    0.862308019
  320 107   2     0.423800000000     12.193015308   17.926938454    2.217340021  # Head
  321 107   2     0.423800000000     13.695926869   21.327853342    1.134904102  # Tail
  322 108   1    -0.847600000000      4.835226817    0.641961456   21.955924558
  323 108   2     0.423800000000      5.585967823    2.669490928   20.469974864  # Head
  324 108   2     0.423800000000      7.191539449   -0.407197889   21.974161788  # Tail
  325 109   1    -0.847600000000      5.305580893   18.951624402    3.351520809
  326 109   2     0.423800000000      4.182903448   21.054077181    4.575007209  # Head
  327 109   2     0.423800000000      3.124618230   17.511736284    3.554899493  # Tail
  328 110   1    -0.847600000000     14.853218244    5.705530318    3.384206622
  329 110   2     0.423800000000     14.176455042    5.803699827    5.798599428  # Head
  330 110   2     0.423800000000     17.371703572    5.614797572    3.751233227  # Tail
  331 111   1    -0.847600000000      5.489140571    8.892743170   22.469379549
  332 111   2     0.423800000000      4.067935490   10.505806027   20.940218098  # Head
  333 111   2     0.423800000000      6.404753521    7.588441823   20.376088291  # Tail
  334 112   1    -0.847600000000      6.772719748    9.928243087   14.601569837
  335 112   2     0.423800000000      9.122536713    8.732724864   14.628276983  # Head
  336 112   2     0.423800000000      7.557281568   11.905211014   16.018043282  # Tail
  337 113   1    -0.847600000000     13.048181545    7.882541725    7.023882638
  338 113   2     0.423800000000     12.797967168    9.497842400    9.053831172  # Head
  339 113   2     0.423800000000     11.520955068    9.633538596    5.871373213  # Tail
  340 114   1    -0.847600000000     11.850986887    7.061922403   15.436347633
  341 114   2     0.423800000000     12.086510192    6.177125296   12.989016569  # Head
  342 114   2     0.423800000000     12.596098755    4.647827272   16.239184122  # Tail
  343 115   1    -0.847600000000      0.640216047    5.357141369   10.726439215
  344 115   2     0.423800000000      0.026728038    6.673634910   12.918948519  # Head
  345 115   2     0.423800000000     -1.953154087    5.720927805   10.130743915  # Tail
  346 116   1    -0.847600000000     14.558294222   13.382110211    4.552481833
  347 116   2     0.423800000000     12.118161762   13.874609643    3.698305551  # Head
  348 116   2     0.423800000000     14.567784094   15.485522787    5.994321623  # Tail
  349 117   1    -0.847600000000      4.266982759    7.595562103    7.022129442