# LAMMPS data file

1000 atoms
0 bonds

2 atom types
1 bond types

0.000000000      28.201000000     xlo xhi
0.000000000      28.201000000     ylo yhi
0.000000000      28.201000000     zlo zhi

Masses

1 22.989769000     # Na
2 35.453000000     # Cl

Atoms

1	1	1	1	0.0000	0.0000	0.0000	0	0	0	#	Na
2	1	1	1	2.8201	2.8201	0.0000	0	0	0	#	Na
3	1	1	1	0.0000	2.8201	2.8201	0	0	0	#	Na
4	1	1	1	2.8201	0.0000	2.8201	0	0	0	#	Na
5	1	2	-1	2.8201	0.0000	0.0000	0	0	0	#	Cl
6	1	2	-1	0.0000	2.8201	0.0000	0	0	0	#	Cl
7	1	2	-1	0.0000	0.0000	2.8201	0	0	0	#	Cl
8	1	2	-1	2.8201	2.8201	2.8201	0	0	0	#	Cl
9	1	1	1	5.6402	0.0000	0.0000	0	0	0	#	Na
10	1	1	1	8.4603	2.8201	0.0000	0	0	0	#	Na
11	1	1	1	5.6402	2.8201	2.8201	0	0	0	#	Na
12	1	1	1	8.4603	0.0000	2.8201	0	0	0	#	Na
13	1	2	-1	8.4603	0.0000	0.0000	0	0	0	#	Cl
14	1	2	-1	5.6402	2.8201	0.0000	0	0	0	#	Cl
15	1	2	-1	5.6402	0.0000	2.8201	0	0	0	#	Cl
16	1	2	-1	8.4603	2.8201	2.8201	0	0	0	#	Cl
17	1	1	1	11.2804	0.0000	0.0000	0	0	0	#	Na
18	1	1	1	14.1005	2.8201	0.0000	0	0	0	#	Na
19	1	1	1	11.2804	2.8201	2.8201	0	0	0	#	Na
20	1	1	1	14.1005	0.0000	2.8201	0	0	0	#	Na
21	1	2	-1	14.1005	0.0000	0.0000	0	0	0	#	Cl
22	1	2	-1	11.2804	2.8201	0.0000	0	0	0	#	Cl
23	1	2	-1	11.2804	0.0000	2.8201	0	0	0	#	Cl
24	1	2	-1	14.1005	2.8201	2.8201	0	0	0	#	Cl
25	1	1	1	16.9206	0.0000	0.0000	0	0	0	#	Na
26	1	1	1	19.7407	2.8201	0.0000	0	0	0	#	Na
27	1	1	1	16.9206	2.8201	2.8201	0	0	0	#	Na
28	1	1	1	19.7407	0.0000	2.8201	0	0	0	#	Na
29	1	2	-1	19.7407	0.0000	0.0000	0	0	0	#	Cl
30	1	2	-1	16.9206	2.8201	0.0000	0	0	0	#	Cl
31	1	2	-1	16.9206	0.0000	2.8201	0	0	0	#	Cl
32	1	2	-1	19.7407	2.8201	2.8201	0	0	0	#	Cl
33	1	1	1	22.5608	0.0000	0.0000	0	0	0	#	Na
34	1	1	1	25.3809	2.8201	0.0000	0	0	0	#	Na
35	1	1	1	22.5608	2.8201	2.8201	0	0	0	#	Na
36	1	1	1	25.3809	0.0000	2.8201	0	0	0	#	Na
37	1	2	-1	25.3809	0.0000	0.0000	0	0	0	#	Cl
38	1	2	-1	22.5608	2.8201	0.0000	0	0	0	#	Cl
39	1	2	-1	22.5608	0.0000	2.8201	0	0	0	#	Cl
40	1	2	-1	25.3809	2.8201	2.8201	0	0	0	#	Cl
41	1	1	1	0.0000	5.6402	0.0000	0	0	0	#	Na
42	1	1	1	2.8201	8.4603	0.0000	0	0	0	#	Na
43	1	1	1	0.0000	8.4603	2.8201	0	0	0	#	Na
44	1	1	1	2.8201	5.6402	2.8201	0	0	0	#	Na
45	1	2	-1	2.8201	5.6402	0.0000	0	0	0	#	Cl
46	1	2	-1	0.0000	8.4603	0.0000	0	0	0	#	Cl
47	1	2	-1	0.0000	5.6402	2.8201	0	0	0	#	Cl
48	1	2	-1	2.8201	8.4603	2.8201	0	0	0	#	Cl
49	1	1	1	5.6402	5.6402	0.0000	0	0	0	#	Na
50	1	1	1	8.4603	8.4603	0.0000	0	0	0	#	Na
51	1	1	1	5.6402	8.4603	2.8201	0	0	0	#	Na
52	1	1	1	8.4603	5.6402	2.8201	0	0	0	#	Na
53	1	2	-1	8.4603	5.6402	0.0000	0	0	0	#	Cl
54	1	2	-1	5.6402	8.4603	0.0000	0	0	0	#	Cl
55	1	2	-1	5.6402	5.6402	2.8201	0	0	0	#	Cl
56	1	2	-1	8.4603	8.4603	2.8201	0	0	0	#	Cl
57	1	1	1	11.2804	5.6402	0.0000	0	0	0	#	Na
58	1	1	1	14.1005	8.4603	0.0000	0	0	0	#	Na
59	1	1	1	11.2804	8.4603	2.8201	0	0	0	#	Na
60	1	1	1	14.1005	5.6402	2.8201	0	0	0	#	Na
61	1	2	-1	14.1005	5.6402	0.0000	0	0	0	#	Cl
62	1	2	-1	11.2804	8.4603	0.0000	0	0	0	#	Cl
63	1	2	-1	11.2804	5.6402	2.8201	0	0	0	#	Cl
64	1	2	-1	14.1005	8.4603	2.8201	0	0	0	#	Cl
65	1	1	1	16.9206	5.6402	0.0000	0	0	0	#	Na
66	1	1	1	19.7407	8.4603	0.0000	0	0	0	#	Na
67	1	1	1	16.9206	8.4603	2.8201	0	0	0	#	Na
68	1	1	1	19.7407	5.6402	2.8201	0	0	0	#	Na
69	1	2	-1	19.7407	5.6402	0.0000	0	0	0	#	Cl
70	1	2	-1	16.9206	8.4603	0.0000	0	0	0	#	Cl
71	1	2	-1	16.9206	5.6402	2.8201	0	0	0	#	Cl
72	1	2	-1	19.7407	8.4603	2.8201	0	0	0	#	Cl
73	1	1	1	22.5608	5.6402	0.0000	0	0	0	#	Na
74	1	1	1	25.3809	8.4603	0.0000	0	0	0	#	Na
75	1	1	1	22.5608	8.4603	2.8201	0	0	0	#	Na
76	1	1	1	25.3809	5.6402	2.8201	0	0	0	#	Na
77	1	2	-1	25.3809	5.6402	0.0000	0	0	0	#	Cl
78	1	2	-1	22.5608	8.4603	0.0000	0	0	0	#	Cl
79	1	2	-1	22.5608	5.6402	2.8201	0	0	0	#	Cl
80	1	2	-1	25.3809	8.4603	2.8201	0	0	0	#	Cl
81	1	1	1	0.0000	11.2804	0.0000	0	0	0	#	Na
82	1	1	1	2.8201	14.1005	0.0000	0	0	0	#	Na
83	1	1	1	0.0000	14.1005	2.8201	0	0	0	#	Na
84	1	1	1	2.8201	11.2804	2.8201	0	0	0	#	Na
85	1	2	-1	2.8201	11.2804	0.0000	0	0	0	#	Cl
86	1	2	-1	0.0000	14.1005	0.0000	0	0	0	#	Cl
87	1	2	-1	0.0000	11.2804	2.8201	0	0	0	#	Cl
88	1	2	-1	2.8201	14.1005	2.8201	0	0	0	#	Cl
89	1	1	1	5.6402	11.2804	0.0000	0	0	0	#	Na
90	1	1	1	8.4603	14.1005	0.0000	0	0	0	#	Na
91	1	1	1	5.6402	14.1005	2.8201	0	0	0	#	Na
92	1	1	1	8.4603	11.2804	2.8201	0	0	0	#	Na
93	1	2	-1	8.4603	11.2804	0.0000	0	0	0	#	Cl
94	1	2	-1	5.6402	14.1005	0.0000	0	0	0	#	Cl
95	1	2	-1	5.6402	11.2804	2.8201	0	0	0	#	Cl
96	1	2	-1	8.4603	14.1005	2.8201	0	0	0	#	Cl
97	1	1	1	11.2804	11.2804	0.0000	0	0	0	#	Na
98	1	1	1	14.1005	14.1005	0.0000	0	0	0	#	Na
99	1	1	1	11.2804	14.1005	2.8201	0	0	0	#	Na
100	1	1	1	14.1005	11.2804	2.8201	0	0	0	#	Na
101	1	2	-1	14.1005	11.2804	0.0000	0	0	0	#	Cl
102	1	2	-1	11.2804	14.1005	0.0000	0	0	0	#	Cl
103	1	2	-1	11.2804	11.2804	2.8201	0	0	0	#	Cl
104	1	2	-1	14.1005	14.1005	2.8201	0	0	0	#	Cl
105	1	1	1	16.9206	11.2804	0.0000	0	0	0	#	Na
106	1	1	1	19.7407	14.1005	0.0000	0	0	0	#	Na
107	1	1	1	16.9206	14.1005	2.8201	0	0	0	#	Na
108	1	1	1	19.7407	11.2804	2.8201	0	0	0	#	Na
109	1	2	-1	19.7407	11.2804	0.0000	0	0	0	#	Cl
110	1	2	-1	16.9206	14.1005	0.0000	0	0	0	#	Cl
111	1	2	-1	16.9206	11.2804	2.8201	0	0	0	#	Cl
112	1	2	-1	19.7407	14.1005	2.8201	0	0	0	#	Cl
113	1	1	1	22.5608	11.2804	0.0000	0	0	0	#	Na
114	1	1	1	25.3809	14.1005	0.0000	0	0	0	#	Na
115	1	1	1	22.5608	14.1005	2.8201	0	0	0	#	Na
116	1	1	1	25.3809	11.2804	2.8201	0	0	0	#	Na
117	1	2	-1	25.3809	11.2804	0.0000	0	0	0	#	Cl
118	1	2	-1	22.5608	14.1005	0.0000	0	0	0	#	Cl
119	1	2	-1	22.5608	11.2804	2.8201	0	0	0	#	Cl
120	1	2	-1	25.3809	14.1005	2.8201	0	0	0	#	Cl
121	1	1	1	0.0000	16.9206	0.0000	0	0	0	#	Na
122	1	1	1	2.8201	19.7407	0.0000	0	0	0	#	Na
123	1	1	1	0.0000	19.7407	2.8201	0	0	0	#	Na
124	1	1	1	2.8201	16.9206	2.8201	0	0	0	#	Na
125	1	2	-1	2.8201	16.9206	0.0000	0	0	0	#	Cl
126	1	2	-1	0.0000	19.7407	0.0000	0	0	0	#	Cl
127	1	2	-1	0.0000	16.9206	2.8201	0	0	0	#	Cl
128	1	2	-1	2.8201	19.7407	2.8201	0	0	0	#	Cl
129	1	1	1	5.6402	16.9206	0.0000	0	0	0	#	Na
130	1	1	1	8.4603	19.7407	0.0000	0	0	0	#	Na
131	1	1	1	5.6402	19.7407	2.8201	0	0	0	#	Na
132	1	1	1	8.4603	16.9206	2.8201	0	0	0	#	Na
133	1	2	-1	8.4603	16.9206	0.0000	0	0	0	#	Cl
134	1	2	-1	5.6402	19.7407	0.0000	0	0	0	#	Cl
135	1	2	-1	5.6402	16.9206	2.8201	0	0	0	#	Cl
136	1	2	-1	8.4603	19.7407	2.8201	0	0	0	#	Cl
137	1	1	1	11.2804	16.9206	0.0000	0	0	0	#	Na
138	1	1	1	14.1005	19.7407	0.0000	0	0	0	#	Na
139	1	1	1	11.2804	19.7407	2.8201	0	0	0	#	Na
140	1	1	1	14.1005	16.9206	2.8201	0	0	0	#	Na
141	1	2	-1	14.1005	16.9206	0.0000	0	0	0	#	Cl
142	1	2	-1	11.2804	19.7407	0.0000	0	0	0	#	Cl
143	1	2	-1	11.2804	16.9206	2.8201	0	0	0	#	Cl
144	1	2	-1	14.1005	19.7407	2.8201	0	0	0	#	Cl
145	1	1	1	16.9206	16.9206	0.0000	0	0	0	#	Na
146	1	1	1	19.7407	19.7407	0.0000	0	0	0	#	Na
147	1	1	1	16.9206	19.7407	2.8201	0	0	0	#	Na
148	1	1	1	19.7407	16.9206	2.8201	0	0	0	#	Na
149	1	2	-1	19.7407	16.9206	0.0000	0	0	0	#	Cl
150	1	2	-1	16.9206	19.7407	0.0000	0	0	0	#	Cl
151	1	2	-1	16.9206	16.9206	2.8201	0	0	0	#	Cl
152	1	2	-1	19.7407	19.7407	2.8201	0	0	0	#	Cl
153	1	1	1	22.5608	16.9206	0.0000	0	0	0	#	Na
154	1	1	1	25.3809	19.7407	0.0000	0	0	0	#	Na
155	1	1	1	22.5608	19.7407	2.8201	0	0	0	#	Na
156	1	1	1	25.3809	16.9206	2.8201	0	0	0	#	Na
157	1	2	-1	25.3809	16.9206	0.0000	0	0	0	#	Cl
158	1	2	-1	22.5608	19.7407	0.0000	0	0	0	#	Cl
159	1	2	-1	22.5608	16.9206	2.8201	0	0	0	#	Cl
160	1	2	-1	25.3809	19.7407	2.8201	0	0	0	#	Cl
161	1	1	1	0.0000	22.5608	0.0000	0	0	0	#	Na
162	1	1	1	2.8201	25.3809	0.0000	0	0	0	#	Na
163	1	1	1	0.0000	25.3809	2.8201	0	0	0	#	Na
164	1	1	1	2.8201	22.5608	2.8201	0	0	0	#	Na
165	1	2	-1	2.8201	22.5608	0.0000	0	0	0	#	Cl
166	1	2	-1	0.0000	25.3809	0.0000	0	0	0	#	Cl
167	1	2	-1	0.0000	22.5608	2.8201	0	0	0	#	Cl
168	1	2	-1	2.8201	25.3809	2.8201	0	0	0	#	Cl
169	1	1	1	5.6402	22.5608	0.0000	0	0	0	#	Na
170	1	1	1	8.4603	25.3809	0.0000	0	0	0	#	Na
171	1	1	1	5.6402	25.3809	2.8201	0	0	0	#	Na
172	1	1	1	8.4603	22.5608	2.8201	0	0	0	#	Na
173	1	2	-1	8.4603	22.5608	0.0000	0	0	0	#	Cl
174	1	2	-1	5.6402	25.3809	0.0000	0	0	0	#	Cl
175	1	2	-1	5.6402	22.5608	2.8201	0	0	0	#	Cl
176	1	2	-1	8.4603	25.3809	2.8201	0	0	0	#	Cl
177	1	1	1	11.2804	22.5608	0.0000	0	0	0	#	Na
178	1	1	1	14.1005	25.3809	0.0000	0	0	0	#	Na
179	1	1	1	11.2804	25.3809	2.8201	0	0	0	#	Na
180	1	1	1	14.1005	22.5608	2.8201	0	0	0	#	Na
181	1	2	-1	14.1005	22.5608	0.0000	0	0	0	#	Cl
182	1	2	-1	11.2804	25.3809	0.0000	0	0	0	#	Cl
183	1	2	-1	11.2804	22.5608	2.8201	0	0	0	#	Cl
184	1	2	-1	14.1005	25.3809	2.8201	0	0	0	#	Cl
185	1	1	1	16.9206	22.5608	0.0000	0	0	0	#	Na
186	1	1	1	19.7407	25.3809	0.0000	0	0	0	#	Na
187	1	1	1	16.9206	25.3809	2.8201	0	0	0	#	Na
188	1	1	1	19.7407	22.5608	2.8201	0	0	0	#	Na
189	1	2	-1	19.7407	22.5608	0.0000	0	0	0	#	Cl
190	1	2	-1	16.9206	25.3809	0.0000	0	0	0	#	Cl
191	1	2	-1	16.9206	22.5608	2.8201	0	0	0	#	Cl
192	1	2	-1	19.7407	25.3809	2.8201	0	0	0	#	Cl
193	1	1	1	22.5608	22.5608	0.0000	0	0	0	#	Na
194	1	1	1	25.3809	25.3809	0.0000	0	0	0	#	Na
195	1	1	1	22.5608	25.3809	2.8201	0	0	0	#	Na
196	1	1	1	25.3809	22.5608	2.8201	0	0	0	#	Na
197	1	2	-1	25.3809	22.5608	0.0000	0	0	0	#	Cl
198	1	2	-1	22.5608	25.3809	0.0000	0	0	0	#	Cl
199	1	2	-1	22.5608	22.5608	2.8201	0	0	0	#	Cl
200	1	2	-1	25.3809	25.3809	2.8201	0	0	0	#	Cl
201	1	1	1	0.0000	0.0000	5.6402	0	0	0	#	Na
202	1	1	1	2.8201	2.8201	5.6402	0	0	0	#	Na
203	1	1	1	0.0000	2.8201	8.4603	0	0	0	#	Na
204	1	1	1	2.8201	0.0000	8.4603	0	0	0	#	Na
205	1	2	-1	2.8201	0.0000	5.6402	0	0	0	#	Cl
206	1	2	-1	0.0000	2.8201	5.6402	0	0	0	#	Cl
207	1	2	-1	0.0000	0.0000	8.4603	0	0	0	#	Cl
208	1	2	-1	2.8201	2.8201	8.4603	0	0	0	#	Cl
209	1	1	1	5.6402	0.0000	5.6402	0	0	0	#	Na
210	1	1	1	8.4603	2.8201	5.6402	0	0	0	#	Na
211	1	1	1	5.6402	2.8201	8.4603	0	0	0	#	Na
212	1	1	1	8.4603	0.0000	8.4603	0	0	0	#	Na
213	1	2	-1	8.4603	0.0000	5.6402	0	0	0	#	Cl
214	1	2	-1	5.6402	2.8201	5.6402	0	0	0	#	Cl
215	1	2	-1	5.6402	0.0000	8.4603	0	0	0	#	Cl
216	1	2	-1	8.4603	2.8201	8.4603	0	0	0	#	Cl
217	1	1	1	11.2804	0.0000	5.6402	0	0	0	#	Na
218	1	1	1	14.1005	2.8201	5.6402	0	0	0	#	Na
219	1	1	1	11.2804	2.8201	8.4603	0	0	0	#	Na
220	1	1	1	14.1005	0.0000	8.4603	0	0	0	#	Na
221	1	2	-1	14.1005	0.0000	5.6402	0	0	0	#	Cl
222	1	2	-1	11.2804	2.8201	5.6402	0	0	0	#	Cl
223	1	2	-1	11.2804	0.0000	8.4603	0	0	0	#	Cl
224	1	2	-1	14.1005	2.8201	8.4603	0	0	0	#	Cl
225	1	1	1	16.9206	0.0000	5.6402	0	0	0	#	Na
226	1	1	1	19.7407	2.8201	5.6402	0	0	0	#	Na
227	1	1	1	16.9206	2.8201	8.4603	0	0	0	#	Na
228	1	1	1	19.7407	0.0000	8.4603	0	0	0	#	Na
229	1	2	-1	19.7407	0.0000	5.6402	0	0	0	#	Cl
230	1	2	-1	16.9206	2.8201	5.6402	0	0	0	#	Cl
231	1	2	-1	16.9206	0.0000	8.4603	0	0	0	#	Cl
232	1	2	-1	19.7407	2.8201	8.4603	0	0	0	#	Cl
233	1	1	1	22.5608	0.0000	5.6402	0	0	0	#	Na
234	1	1	1	25.3809	2.8201	5.6402	0	0	0	#	Na
235	1	1	1	22.5608	2.8201	8.4603	0	0	0	#	Na
236	1	1	1	25.3809	0.0000	8.4603	0	0	0	#	Na
237	1	2	-1	25.3809	0.0000	5.6402	0	0	0	#	Cl
238	1	2	-1	22.5608	2.8201	5.6402	0	0	0	#	Cl
239	1	2	-1	22.5608	0.0000	8.4603	0	0	0	#	Cl
240	1	2	-1	25.3809	2.8201	8.4603	0	0	0	#	Cl
241	1	1	1	0.0000	5.6402	5.6402	0	0	0	#	Na
242	1	1	1	2.8201	8.4603	5.6402	0	0	0	#	Na
243	1	1	1	0.0000	8.4603	8.4603	0	0	0	#	Na
244	1	1	1	2.8201	5.6402	8.4603	0	0	0	#	Na
245	1	2	-1	2.8201	5.6402	5.6402	0	0	0	#	Cl
246	1	2	-1	0.0000	8.4603	5.6402	0	0	0	#	Cl
247	1	2	-1	0.0000	5.6402	8.4603	0	0	0	#	Cl
248	1	2	-1	2.8201	8.4603	8.4603	0	0	0	#	Cl
249	1	1	1	5.6402	5.6402	5.6402	0	0	0	#	Na
250	1	1	1	8.4603	8.4603	5.6402	0	0	0	#	Na
251	1	1	1	5.6402	8.4603	8.4603	0	0	0	#	Na
252	1	1	1	8.4603	5.6402	8.4603	0	0	0	#	Na
253	1	2	-1	8.4603	5.6402	5.6402	0	0	0	#	Cl
254	1	2	-1	5.6402	8.4603	5.6402	0	0	0	#	Cl
255	1	2	-1	5.6402	5.6402	8.4603	0	0	0	#	Cl
256	1	2	-1	8.4603	8.4603	8.4603	0	0	0	#	Cl
257	1	1	1	11.2804	5.6402	5.6402	0	0	0	#	Na
258	1	1	1	14.1005	8.4603	5.6402	0	0	0	#	Na
259	1	1	1	11.2804	8.4603	8.4603	0	0	0	#	Na
260	1	1	1	14.1005	5.6402	8.4603	0	0	0	#	Na
261	1	2	-1	14.1005	5.6402	5.6402	0	0	0	#	Cl
262	1	2	-1	11.2804	8.4603	5.6402	0	0	0	#	Cl
263	1	2	-1	11.2804	5.6402	8.4603	0	0	0	#	Cl
264	1	2	-1	14.1005	8.4603	8.4603	0	0	0	#	Cl
265	1	1	1	16.9206	5.6402	5.6402	0	0	0	#	Na
266	1	1	1	19.7407	8.4603	5.6402	0	0	0	#	Na
267	1	1	1	16.9206	8.4603	8.4603	0	0	0	#	Na
268	1	1	1	19.7407	5.6402	8.4603	0	0	0	#	Na
269	1	2	-1	19.7407	5.6402	5.6402	0	0	0	#	Cl
270	1	2	-1	16.9206	8.4603	5.6402	0	0	0	#	Cl
271	1	2	-1	16.9206	5.6402	8.4603	0	0	0	#	Cl
272	1	2	-1	19.7407	8.4603	8.4603	0	0	0	#	Cl
273	1	1	1	22.5608	5.6402	5.6402	0	0	0	#	Na
274	1	1	1	25.3809	8.4603	5.6402	0	0	0	#	Na
275	1	1	1	22.5608	8.4603	8.4603	0	0	0	#	Na
276	1	1	1	25.3809	5.6402	8.4603	0	0	0	#	Na
277	1	2	-1	25.3809	5.6402	5.6402	0	0	0	#	Cl
278	1	2	-1	22.5608	8.4603	5.6402	0	0	0	#	Cl
279	1	2	-1	22.5608	5.6402	8.4603	0	0	0	#	Cl
280	1	2	-1	25.3809	8.4603	8.4603	0	0	0	#	Cl
281	1	1	1	0.0000	11.2804	5.6402	0	0	0	#	Na
282	1	1	1	2.8201	14.1005	5.6402	0	0	0	#	Na
283	1	1	1	0.0000	14.1005	8.4603	0	0	0	#	Na
284	1	1	1	2.8201	11.2804	8.4603	0	0	0	#	Na
285	1	2	-1	2.8201	11.2804	5.6402	0	0	0	#	Cl
286	1	2	-1	0.0000	14.1005	5.6402	0	0	0	#	Cl
287	1	2	-1	0.0000	11.2804	8.4603	0	0	0	#	Cl
288	1	2	-1	2.8201	14.1005	8.4603	0	0	0	#	Cl
289	1	1	1	5.6402	11.2804	5.6402	0	0	0	#	Na
290	1	1	1	8.4603	14.1005	5.6402	0	0	0	#	Na
291	1	1	1	5.6402	14.1005	8.4603	0	0	0	#	Na
292	1	1	1	8.4603	11.2804	8.4603	0	0	0	#	Na
293	1	2	-1	8.4603	11.2804	5.6402	0	0	0	#	Cl
294	1	2	-1	5.6402	14.1005	5.6402	0	0	0	#	Cl
295	1	2	-1	5.6402	11.2804	8.4603	0	0	0	#	Cl
296	1	2	-1	8.4603	14.1005	8.4603	0	0	0	#	Cl
297	1	1	1	11.2804	11.2804	5.6402	0	0	0	#	Na
298	1	1	1	14.1005	14.1005	5.6402	0	0	0	#	Na
299	1	1	1	11.2804	14.1005	8.4603	0	0	0	#	Na
300	1	1	1	14.1005	11.2804	8.4603	0	0	0	#	Na
301	1	2	-1	14.1005	11.2804	5.6402	0	0	0	#	Cl
302	1	2	-1	11.2804	14.1005	5.6402	0	0	0	#	Cl
303	1	2	-1	11.2804	11.2804	8.4603	0	0	0	#	Cl
304	1	2	-1	14.1005	14.1005	8.4603	0	0	0	#	Cl
305	1	1	1	16.9206	11.2804	5.6402	0	0	0	#	Na
306	1	1	1	19.7407	14.1005	5.6402	0	0	0	#	Na
307	1	1	1	16.9206	14.1005	8.4603	0	0	0	#	Na
308	1	1	1	19.7407	11.2804	8.4603	0	0	0	#	Na
309	1	2	-1	19.7407	11.2804	5.6402	0	0	0	#	Cl
310	1	2	-1	16.9206	14.1005	5.6402	0	0	0	#	Cl
311	1	2	-1	16.9206	11.2804	8.4603	0	0	0	#	Cl
312	1	2	-1	19.7407	14.1005	8.4603	0	0	0	#	Cl
313	1	1	1	22.5608	11.2804	5.6402	0	0	0	#	Na
314	1	1	1	25.3809	14.1005	5.6402	0	0	0	#	Na
315	1	1	1	22.5608	14.1005	8.4603	0	0	0	#	Na
316	1	1	1	25.3809	11.2804	8.4603	0	0	0	#	Na
317	1	2	-1	25.3809	11.2804	5.6402	0	0	0	#	Cl
318	1	2	-1	22.5608	14.1005	5.6402	0	0	0	#	Cl
319	1	2	-1	22.5608	11.2804	8.4603	0	0	0	#	Cl
320	1	2	-1	25.3809	14.1005	8.4603	0	0	0	#	Cl
321	1	1	1	0.0000	16.9206	5.6402	0	0	0	#	Na
322	1	1	1	2.8201	19.7407	5.6402	0	0	0	#	Na
323	1	1	1	0.0000	19.7407	8.4603	0	0	0	#	Na
324	1	1	1	2.8201	16.9206	8.4603	0	0	0	#	Na
325	1	2	-1	2.8201	16.9206	5.6402	0	0	0	#	Cl
326	1	2	-1	0.0000	19.7407	5.6402	0	0	0	#	Cl
327	1	2	-1	0.0000	16.9206	8.4603	0	0	0	#	Cl
328	1	2	-1	2.8201	19.7407	8.4603	0	0	0	#	Cl
329	1	1	1	5.6402	16.9206	5.6402	0	0	0	#	Na
330	1	1	1	8.4603	19.7407	5.6402	0	0	0	#	Na
331	1	1	1	5.6402	19.7407	8.4603	0	0	0	#	Na
332	1	1	1	8.4603	16.9206	8.4603	0	0	0	#	Na
333	1	2	-1	8.4603	16.9206	5.6402	0	0	0	#	Cl
334	1	2	-1	5.6402	19.7407	5.6402	0	0	0	#	Cl
335	1	2	-1	5.6402	16.9206	8.4603	0	0	0	#	Cl
336	1	2	-1	8.4603	19.7407	8.4603	0	0	0	#	Cl
337	1	1	1	11.2804	16.9206	5.6402	0	0	0	#	Na
338	1	1	1	14.1005	19.7407	5.6402	0	0	0	#	Na
339	1	1	1	11.2804	19.7407	8.4603	0	0	0	#	Na
340	1	1	1	14.1005	16.9206	8.4603	0	0	0	#	Na
341	1	2	-1	14.1005	16.9206	5.6402	0	0	0	#	Cl
342	1	2	-1	11.2804	19.7407	5.6402	0	0	0	#	Cl
343	1	2	-1	11.2804	16.9206	8.4603	0	0	0	#	Cl
344	1	2	-1	14.1005	19.7407	8.4603	0	0	0	#	Cl
345	1	1	1	16.9206	16.9206	5.6402	0	0	0	#	Na
346	1	1	1	19.7407	19.7407	5.6402	0	0	0	#	Na
347	1	1	1	16.9206	19.7407	8.4603	0	0	0	#	Na
348	1	1	1	19.7407	16.9206	8.4603	0	0	0	#	Na
349	1	2	-1	19.7407	16.9206	5.6402	0	0	0	#	Cl
350	1	2	-1	16.9206	19.7407	5.6402	0	0	0	#	Cl
351	1	2	-1	16.9206	16.9206	8.4603	0	0	0	#	Cl
352	1	2	-1	19.7407	19.7407	8.4603	0	0	0	#	Cl
353	1	1	1	22.5608	16.9206	5.6402	0	0	0	#	Na
354	1	1	1	25.3809	19.7407	5.6402	0	0	0	#	Na
355	1	1	1	22.5608	19.7407	8.4603	0	0	0	#	Na
356	1	1	1	25.3809	16.9206	8.4603	0	0	0	#	Na
357	1	2	-1	25.3809	16.9206	5.6402	0	0	0	#	Cl
358	1	2	-1	22.5608	19.7407	5.6402	0	0	0	#	Cl
359	1	2	-1	22.5608	16.9206	8.4603	0	0	0	#	Cl
360	1	2	-1	25.3809	19.7407	8.4603	0	0	0	#	Cl
361	1	1	1	0.0000	22.5608	5.6402	0	0	0	#	Na
362	1	1	1	2.8201	25.3809	5.6402	0	0	0	#	Na
363	1	1	1	0.0000	25.3809	8.4603	0	0	0	#	Na
364	1	1	1	2.8201	22.5608	8.4603	0	0	0	#	Na
365	1	2	-1	2.8201	22.5608	5.6402	0	0	0	#	Cl
366	1	2	-1	0.0000	25.3809	5.6402	0	0	0	#	Cl
367	1	2	-1	0.0000	22.5608	8.4603	0	0	0	#	Cl
368	1	2	-1	2.8201	25.3809	8.4603	0	0	0	#	Cl
369	1	1	1	5.6402	22.5608	5.6402	0	0	0	#	Na
370	1	1	1	8.4603	25.3809	5.6402	0	0	0	#	Na
371	1	1	1	5.6402	25.3809	8.4603	0	0	0	#	Na
372	1	1	1	8.4603	22.5608	8.4603	0	0	0	#	Na
373	1	2	-1	8.4603	22.5608	5.6402	0	0	0	#	Cl
374	1	2	-1	5.6402	25.3809	5.6402	0	0	0	#	Cl
375	1	2	-1	5.6402	22.5608	8.4603	0	0	0	#	Cl
376	1	2	-1	8.4603	25.3809	8.4603	0	0	0	#	Cl
377	1	1	1	11.2804	22.5608	5.6402	0	0	0	#	Na
378	1	1	1	14.1005	25.3809	5.6402	0	0	0	#	Na
379	1	1	1	11.2804	25.3809	8.4603	0	0	0	#	Na
380	1	1	1	14.1005	22.5608	8.4603	0	0	0	#	Na
381	1	2	-1	14.1005	22.5608	5.6402	0	0	0	#	Cl
382	1	2	-1	11.2804	25.3809	5.6402	0	0	0	#	Cl
383	1	2	-1	11.2804	22.5608	8.4603	0	0	0	#	Cl
384	1	2	-1	14.1005	25.3809	8.4603	0	0	0	#	Cl
385	1	1	1	16.9206	22.5608	5.6402	0	0	0	#	Na
386	1	1	1	19.7407	25.3809	5.6402	0	0	0	#	Na
387	1	1	1	16.9206	25.3809	8.4603	0	0	0	#	Na
388	1	1	1	19.7407	22.5608	8.4603	0	0	0	#	Na
389	1	2	-1	19.7407	22.5608	5.6402	0	0	0	#	Cl
390	1	2	-1	16.9206	25.3809	5.6402	0	0	0	#	Cl
391	1	2	-1	16.9206	22.5608	8.4603	0	0	0	#	Cl
392	1	2	-1	19.7407	25.3809	8.4603	0	0	0	#	Cl
393	1	1	1	22.5608	22.5608	5.6402	0	0	0	#	Na
394	1	1	1	25.3809	25.3809	5.6402	0	0	0	#	Na
395	1	1	1	22.5608	25.3809	8.4603	0	0	0	#	Na
396	1	1	1	25.3809	22.5608	8.4603	0	0	0	#	Na
397	1	2	-1	25.3809	22.5608	5.6402	0	0	0	#	Cl
398	1	2	-1	22.5608	25.3809	5.6402	0	0	0	#	Cl
399	1	2	-1	22.5608	22.5608	8.4603	0	0	0	#	Cl
400	1	2	-1	25.3809	25.3809	8.4603	0	0	0	#	Cl
401	1	1	1	0.0000	0.0000	11.2804	0	0	0	#	Na
402	1	1	1	2.8201	2.8201	11.2804	0	0	0	#	Na
403	1	1	1	0.0000	2.8201	14.1005	0	0	0	#	Na
404	1	1	1	2.8201	0.0000	14.1005	0	0	0	#	Na
405	1	2	-1	2.8201	0.0000	11.2804	0	0	0	#	Cl
406	1	2	-1	0.0000	2.8201	11.2804	0	0	0	#	Cl
407	1	2	-1	0.0000	0.0000	14.1005	0	0	0	#	Cl
408	1	2	-1	2.8201	2.8201	14.1005	0	0	0	#	Cl
409	1	1	1	5.6402	0.0000	11.2804	0	0	0	#	Na
410	1	1	1	8.4603	2.8201	11.2804	0	0	0	#	Na
411	1	1	1	5.6402	2.8201	14.1005	0	0	0	#	Na
412	1	1	1	8.4603	0.0000	14.1005	0	0	0	#	Na
413	1	2	-1	8.4603	0.0000	11.2804	0	0	0	#	Cl
414	1	2	-1	5.6402	2.8201	11.2804	0	0	0	#	Cl
415	1	2	-1	5.6402	0.0000	14.1005	0	0	0	#	Cl
416	1	2	-1	8.4603	2.8201	14.1005	0	0	0	#	Cl
417	1	1	1	11.2804	0.0000	11.2804	0	0	0	#	Na
418	1	1	1	14.1005	2.8201	11.2804	0	0	0	#	Na
419	1	1	1	11.2804	2.8201	14.1005	0	0	0	#	Na
420	1	1	1	14.1005	0.0000	14.1005	0	0	0	#	Na
421	1	2	-1	14.1005	0.0000	11.2804	0	0	0	#	Cl
422	1	2	-1	11.2804	2.8201	11.2804	0	0	0	#	Cl
423	1	2	-1	11.2804	0.0000	14.1005	0	0	0	#	Cl
424	1	2	-1	14.1005	2.8201	14.1005	0	0	0	#	Cl
425	1	1	1	16.9206	0.0000	11.2804	0	0	0	#	Na
426	1	1	1	19.7407	2.8201	11.2804	0	0	0	#	Na
427	1	1	1	16.9206	2.8201	14.1005	0	0	0	#	Na
428	1	1	1	19.7407	0.0000	14.1005	0	0	0	#	Na
429	1	2	-1	19.7407	0.0000	11.2804	0	0	0	#	Cl
430	1	2	-1	16.9206	2.8201	11.2804	0	0	0	#	Cl
431	1	2	-1	16.9206	0.0000	14.1005	0	0	0	#	Cl
432	1	2	-1	19.7407	2.8201	14.1005	0	0	0	#	Cl
433	1	1	1	22.5608	0.0000	11.2804	0	0	0	#	Na
434	1	1	1	25.3809	2.8201	11.2804	0	0	0	#	Na
435	1	1	1	22.5608	2.8201	14.1005	0	0	0	#	Na
436	1	1	1	25.3809	0.0000	14.1005	0	0	0	#	Na
437	1	2	-1	25.3809	0.0000	11.2804	0	0	0	#	Cl
438	1	2	-1	22.5608	2.8201	11.2804	0	0	0	#	Cl
439	1	2	-1	22.5608	0.0000	14.1005	0	0	0	#	Cl
440	1	2	-1	25.3809	2.8201	14.1005	0	0	0	#	Cl
441	1	1	1	0.0000	5.6402	11.2804	0	0	0	#	Na
442	1	1	1	2.8201	8.4603	11.2804	0	0	0	#	Na
443	1	1	1	0.0000	8.4603	14.1005	0	0	0	#	Na
444	1	1	1	2.8201	5.6402	14.1005	0	0	0	#	Na
445	1	2	-1	2.8201	5.6402	11.2804	0	0	0	#	Cl
446	1	2	-1	0.0000	8.4603	11.2804	0	0	0	#	Cl
447	1	2	-1	0.0000	5.6402	14.1005	0	0	0	#	Cl
448	1	2	-1	2.8201	8.4603	14.1005	0	0	0	#	Cl
449	1	1	1	5.6402	5.6402	11.2804	0	0	0	#	Na
450	1	1	1	8.4603	8.4603	11.2804	0	0	0	#	Na
451	1	1	1	5.6402	8.4603	14.1005	0	0	0	#	Na
452	1	1	1	8.4603	5.6402	14.1005	0	0	0	#	Na
453	1	2	-1	8.4603	5.6402	11.2804	0	0	0	#	Cl
454	1	2	-1	5.6402	8.4603	11.2804	0	0	0	#	Cl
455	1	2	-1	5.6402	5.6402	14.1005	0	0	0	#	Cl
456	1	2	-1	8.4603	8.4603	14.1005	0	0	0	#	Cl
457	1	1	1	11.2804	5.6402	11.2804	0	0	0	#	Na
458	1	1	1	14.1005	8.4603	11.2804	0	0	0	#	Na
459	1	1	1	11.2804	8.4603	14.1005	0	0	0	#	Na
460	1	1	1	14.1005	5.6402	14.1005	0	0	0	#	Na
461	1	2	-1	14.1005	5.6402	11.2804	0	0	0	#	Cl
462	1	2	-1	11.2804	8.4603	11.2804	0	0	0	#	Cl
463	1	2	-1	11.2804	5.6402	14.1005	0	0	0	#	Cl
464	1	2	-1	14.1005	8.4603	14.1005	0	0	0	#	Cl
465	1	1	1	16.9206	5.6402	11.2804	0	0	0	#	Na
466	1	1	1	19.7407	8.4603	11.2804	0	0	0	#	Na
467	1	1	1	16.9206	8.4603	14.1005	0	0	0	#	Na
468	1	1	1	19.7407	5.6402	14.1005	0	0	0	#	Na
469	1	2	-1	19.7407	5.6402	11.2804	0	0	0	#	Cl
470	1	2	-1	16.9206	8.4603	11.2804	0	0	0	#	Cl
471	1	2	-1	16.9206	5.6402	14.1005	0	0	0	#	Cl
472	1	2	-1	19.7407	8.4603	14.1005	0	0	0	#	Cl
473	1	1	1	22.5608	5.6402	11.2804	0	0	0	#	Na
474	1	1	1	25.3809	8.4603	11.2804	0	0	0	#	Na
475	1	1	1	22.5608	8.4603	14.1005	0	0	0	#	Na
476	1	1	1	25.3809	5.6402	14.1005	0	0	0	#	Na
477	1	2	-1	25.3809	5.6402	11.2804	0	0	0	#	Cl
478	1	2	-1	22.5608	8.4603	11.2804	0	0	0	#	Cl
479	1	2	-1	22.5608	5.6402	14.1005	0	0	0	#	Cl
480	1	2	-1	25.3809	8.4603	14.1005	0	0	0	#	Cl
481	1	1	1	0.0000	11.2804	11.2804	0	0	0	#	Na
482	1	1	1	2.8201	14.1005	11.2804	0	0	0	#	Na
483	1	1	1	0.0000	14.1005	14.1005	0	0	0	#	Na
484	1	1	1	2.8201	11.2804	14.1005	0	0	0	#	Na
485	1	2	-1	2.8201	11.2804	11.2804	0	0	0	#	Cl
486	1	2	-1	0.0000	14.1005	11.2804	0	0	0	#	Cl
487	1	2	-1	0.0000	11.2804	14.1005	0	0	0	#	Cl
488	1	2	-1	2.8201	14.1005	14.1005	0	0	0	#	Cl
489	1	1	1	5.6402	11.2804	11.2804	0	0	0	#	Na
490	1	1	1	8.4603	14.1005	11.2804	0	0	0	#	Na
491	1	1	1	5.6402	14.1005	14.1005	0	0	0	#	Na
492	1	1	1	8.4603	11.2804	14.1005	0	0	0	#	Na
493	1	2	-1	8.4603	11.2804	11.2804	0	0	0	#	Cl
494	1	2	-1	5.6402	14.1005	11.2804	0	0	0	#	Cl
495	1	2	-1	5.6402	11.2804	14.1005	0	0	0	#	Cl
496	1	2	-1	8.4603	14.1005	14.1005	0	0	0	#	Cl
497	1	1	1	11.2804	11.2804	11.2804	0	0	0	#	Na
498	1	1	1	14.1005	14.1005	11.2804	0	0	0	#	Na
499	1	1	1	11.2804	14.1005	14.1005	0	0	0	#	Na
500	1	1	1	14.1005	11.2804	14.1005	0	0	0	#	Na
501	1	2	-1	14.1005	11.2804	11.2804	0	0	0	#	Cl
502	1	2	-1	11.2804	14.1005	11.2804	0	0	0	#	Cl
503	1	2	-1	11.2804	11.2804	14.1005	0	0	0	#	Cl
504	1	2	-1	14.1005	14.1005	14.1005	0	0	0	#	Cl
505	1	1	1	16.9206	11.2804	11.2804	0	0	0	#	Na
506	1	1	1	19.7407	14.1005	11.2804	0	0	0	#	Na
507	1	1	1	16.9206	14.1005	14.1005	0	0	0	#	Na
508	1	1	1	19.7407	11.2804	14.1005	0	0	0	#	Na
509	1	2	-1	19.7407	11.2804	11.2804	0	0	0	#	Cl
510	1	2	-1	16.9206	14.1005	11.2804	0	0	0	#	Cl
511	1	2	-1	16.9206	11.2804	14.1005	0	0	0	#	Cl
512	1	2	-1	19.7407	14.1005	14.1005	0	0	0	#	Cl
513	1	1	1	22.5608	11.2804	11.2804	0	0	0	#	Na
514	1	1	1	25.3809	14.1005	11.2804	0	0	0	#	Na
515	1	1	1	22.5608	14.1005	14.1005	0	0	0	#	Na
516	1	1	1	25.3809	11.2804	14.1005	0	0	0	#	Na
517	1	2	-1	25.3809	11.2804	11.2804	0	0	0	#	Cl
518	1	2	-1	22.5608	14.1005	11.2804	0	0	0	#	Cl
519	1	2	-1	22.5608	11.2804	14.1005	0	0	0	#	Cl
520	1	2	-1	25.3809	14.1005	14.1005	0	0	0	#	Cl
521	1	1	1	0.0000	16.9206	11.2804	0	0	0	#	Na
522	1	1	1	2.8201	19.7407	11.2804	0	0	0	#	Na
523	1	1	1	0.0000	19.7407	14.1005	0	0	0	#	Na
524	1	1	1	2.8201	16.9206	14.1005	0	0	0	#	Na
525	1	2	-1	2.8201	16.9206	11.2804	0	0	0	#	Cl
526	1	2	-1	0.0000	19.7407	11.2804	0	0	0	#	Cl
527	1	2	-1	0.0000	16.9206	14.1005	0	0	0	#	Cl
528	1	2	-1	2.8201	19.7407	14.1005	0	0	0	#	Cl
529	1	1	1	5.6402	16.9206	11.2804	0	0	0	#	Na
530	1	1	1	8.4603	19.7407	11.2804	0	0	0	#	Na
531	1	1	1	5.6402	19.7407	14.1005	0	0	0	#	Na
532	1	1	1	8.4603	16.9206	14.1005	0	0	0	#	Na
533	1	2	-1	8.4603	16.9206	11.2804	0	0	0	#	Cl
534	1	2	-1	5.6402	19.7407	11.2804	0	0	0	#	Cl
535	1	2	-1	5.6402	16.9206	14.1005	0	0	0	#	Cl
536	1	2	-1	8.4603	19.7407	14.1005	0	0	0	#	Cl
537	1	1	1	11.2804	16.9206	11.2804	0	0	0	#	Na
538	1	1	1	14.1005	19.7407	11.2804	0	0	0	#	Na
539	1	1	1	11.2804	19.7407	14.1005	0	0	0	#	Na
540	1	1	1	14.1005	16.9206	14.1005	0	0	0	#	Na
541	1	2	-1	14.1005	16.9206	11.2804	0	0	0	#	Cl
542	1	2	-1	11.2804	19.7407	11.2804	0	0	0	#	Cl
543	1	2	-1	11.2804	16.9206	14.1005	0	0	0	#	Cl
544	1	2	-1	14.1005	19.7407	14.1005	0	0	0	#	Cl
545	1	1	1	16.9206	16.9206	11.2804	0	0	0	#	Na
546	1	1	1	19.7407	19.7407	11.2804	0	0	0	#	Na
547	1	1	1	16.9206	19.7407	14.1005	0	0	0	#	Na
548	1	1	1	19.7407	16.9206	14.1005	0	0	0	#	Na
549	1	2	-1	19.7407	16.9206	11.2804	0	0	0	#	Cl
550	1	2	-1	16.9206	19.7407	11.2804	0	0	0	#	Cl
551	1	2	-1	16.9206	16.9206	14.1005	0	0	0	#	Cl
552	1	2	-1	19.7407	19.7407	14.1005	0	0	0	#	Cl
553	1	1	1	22.5608	16.9206	11.2804	0	0	0	#	Na
554	1	1	1	25.3809	19.7407	11.2804	0	0	0	#	Na
555	1	1	1	22.5608	19.7407	14.1005	0	0	0	#	Na
556	1	1	1	25.3809	16.9206	14.1005	0	0	0	#	Na
557	1	2	-1	25.3809	16.9206	11.2804	0	0	0	#	Cl
558	1	2	-1	22.5608	19.7407	11.2804	0	0	0	#	Cl
559	1	2	-1	22.5608	16.9206	14.1005	0	0	0	#	Cl
560	1	2	-1	25.3809	19.7407	14.1005	0	0	0	#	Cl
561	1	1	1	0.0000	22.5608	11.2804	0	0	0	#	Na
562	1	1	1	2.8201	25.3809	11.2804	0	0	0	#	Na
563	1	1	1	0.0000	25.3809	14.1005	0	0	0	#	Na
564	1	1	1	2.8201	22.5608	14.1005	0	0	0	#	Na
565	1	2	-1	2.8201	22.5608	11.2804	0	0	0	#	Cl
566	1	2	-1	0.0000	25.3809	11.2804	0	0	0	#	Cl
567	1	2	-1	0.0000	22.5608	14.1005	0	0	0	#	Cl
568	1	2	-1	2.8201	25.3809	14.1005	0	0	0	#	Cl
569	1	1	1	5.6402	22.5608	11.2804	0	0	0	#	Na
570	1	1	1	8.4603	25.3809	11.2804	0	0	0	#	Na
571	1	1	1	5.6402	25.3809	14.1005	0	0	0	#	Na
572	1	1	1	8.4603	22.5608	14.1005	0	0	0	#	Na
573	1	2	-1	8.4603	22.5608	11.2804	0	0	0	#	Cl
574	1	2	-1	5.6402	25.3809	11.2804	0	0	0	#	Cl
575	1	2	-1	5.6402	22.5608	14.1005	0	0	0	#	Cl
576	1	2	-1	8.4603	25.3809	14.1005	0	0	0	#	Cl
577	1	1	1	11.2804	22.5608	11.2804	0	0	0	#	Na
578	1	1	1	14.1005	25.3809	11.2804	0	0	0	#	Na
579	1	1	1	11.2804	25.3809	14.1005	0	0	0	#	Na
580	1	1	1	14.1005	22.5608	14.1005	0	0	0	#	Na
581	1	2	-1	14.1005	22.5608	11.2804	0	0	0	#	Cl
582	1	2	-1	11.2804	25.3809	11.2804	0	0	0	#	Cl
583	1	2	-1	11.2804	22.5608	14.1005	0	0	0	#	Cl
584	1	2	-1	14.1005	25.3809	14.1005	0	0	0	#	Cl
585	1	1	1	16.9206	22.5608	11.2804	0	0	0	#	Na
586	1	1	1	19.7407	25.3809	11.2804	0	0	0	#	Na
587	1	1	1	16.9206	25.3809	14.1005	0	0	0	#	Na
588	1	1	1	19.7407	22.5608	14.1005	0	0	0	#	Na
589	1	2	-1	19.7407	22.5608	11.2804	0	0	0	#	Cl
590	1	2	-1	16.9206	25.3809	11.2804	0	0	0	#	Cl
591	1	2	-1	16.9206	22.5608	14.1005	0	0	0	#	Cl
592	1	2	-1	19.7407	25.3809	14.1005	0	0	0	#	Cl
593	1	1	1	22.5608	22.5608	11.2804	0	0	0	#	Na
594	1	1	1	25.3809	25.3809	11.2804	0	0	0	#	Na
595	1	1	1	22.5608	25.3809	14.1005	0	0	0	#	Na
596	1	1	1	25.3809	22.5608	14.1005	0	0	0	#	Na
597	1	2	-1	25.3809	22.5608	11.2804	0	0	0	#	Cl
598	1	2	-1	22.5608	25.3809	11.2804	0	0	0	#	Cl
599	1	2	-1	22.5608	22.5608	14.1005	0	0	0	#	Cl
600	1	2	-1	25.3809	25.3809	14.1005	0	0	0	#	Cl
601	1	1	1	0.0000	0.0000	16.9206	0	0	0	#	Na
602	1	1	1	2.8201	2.8201	16.9206	0	0	0	#	Na
603	1	1	1	0.0000	2.8201	19.7407	0	0	0	#	Na
604	1	1	1	2.8201	0.0000	19.7407	0	0	0	#	Na
605	1	2	-1	2.8201	0.0000	16.9206	0	0	0	#	Cl
606	1	2	-1	0.0000	2.8201	16.9206	0	0	0	#	Cl
607	1	2	-1	0.0000	0.0000	19.7407	0	0	0	#	Cl
608	1	2	-1	2.8201	2.8201	19.7407	0	0	0	#	Cl
609	1	1	1	5.6402	0.0000	16.9206	0	0	0	#	Na
610	1	1	1	8.4603	2.8201	16.9206	0	0	0	#	Na
611	1	1	1	5.6402	2.8201	19.7407	0	0	0	#	Na
612	1	1	1	8.4603	0.0000	19.7407	0	0	0	#	Na
613	1	2	-1	8.4603	0.0000	16.9206	0	0	0	#	Cl
614	1	2	-1	5.6402	2.8201	16.9206	0	0	0	#	Cl
615	1	2	-1	5.6402	0.0000	19.7407	0	0	0	#	Cl
616	1	2	-1	8.4603	2.8201	19.7407	0	0	0	#	Cl
617	1	1	1	11.2804	0.0000	16.9206	0	0	0	#	Na
618	1	1	1	14.1005	2.8201	16.9206	0	0	0	#	Na
619	1	1	1	11.2804	2.8201	19.7407	0	0	0	#	Na
620	1	1	1	14.1005	0.0000	19.7407	0	0	0	#	Na
621	1	2	-1	14.1005	0.0000	16.9206	0	0	0	#	Cl
622	1	2	-1	11.2804	2.8201	16.9206	0	0	0	#	Cl
623	1	2	-1	11.2804	0.0000	19.7407	0	0	0	#	Cl
624	1	2	-1	14.1005	2.8201	19.7407	0	0	0	#	Cl
625	1	1	1	16.9206	0.0000	16.9206	0	0	0	#	Na
626	1	1	1	19.7407	2.8201	16.9206	0	0	0	#	Na
627	1	1	1	16.9206	2.8201	19.7407	0	0	0	#	Na
628	1	1	1	19.7407	0.0000	19.7407	0	0	0	#	Na
629	1	2	-1	19.7407	0.0000	16.9206	0	0	0	#	Cl
630	1	2	-1	16.9206	2.8201	16.9206	0	0	0	#	Cl
631	1	2	-1	16.9206	0.0000	19.7407	0	0	0	#	Cl
632	1	2	-1	19.7407	2.8201	19.7407	0	0	0	#	Cl
633	1	1	1	22.5608	0.0000	16.9206	0	0	0	#	Na
634	1	1	1	25.3809	2.8201	16.9206	0	0	0	#	Na
635	1	1	1	22.5608	2.8201	19.7407	0	0	0	#	Na
636	1	1	1	25.3809	0.0000	19.7407	0	0	0	#	Na
637	1	2	-1	25.3809	0.0000	16.9206	0	0	0	#	Cl
638	1	2	-1	22.5608	2.8201	16.9206	0	0	0	#	Cl
639	1	2	-1	22.5608	0.0000	19.7407	0	0	0	#	Cl
640	1	2	-1	25.3809	2.8201	19.7407	0	0	0	#	Cl
641	1	1	1	0.0000	5.6402	16.9206	0	0	0	#	Na
642	1	1	1	2.8201	8.4603	16.9206	0	0	0	#	Na
643	1	1	1	0.0000	8.4603	19.7407	0	0	0	#	Na
644	1	1	1	2.8201	5.6402	19.7407	0	0	0	#	Na
645	1	2	-1	2.8201	5.6402	16.9206	0	0	0	#	Cl
646	1	2	-1	0.0000	8.4603	16.9206	0	0	0	#	Cl
647	1	2	-1	0.0000	5.6402	19.7407	0	0	0	#	Cl
648	1	2	-1	2.8201	8.4603	19.7407	0	0	0	#	Cl
649	1	1	1	5.6402	5.6402	16.9206	0	0	0	#	Na
650	1	1	1	8.4603	8.4603	16.9206	0	0	0	#	Na
651	1	1	1	5.6402	8.4603	19.7407	0	0	0	#	Na
652	1	1	1	8.4603	5.6402	19.7407	0	0	0	#	Na
653	1	2	-1	8.4603	5.6402	16.9206	0	0	0	#	Cl
654	1	2	-1	5.6402	8.4603	16.9206	0	0	0	#	Cl
655	1	2	-1	5.6402	5.6402	19.7407	0	0	0	#	Cl
656	1	2	-1	8.4603	8.4603	19.7407	0	0	0	#	Cl
657	1	1	1	11.2804	5.6402	16.9206	0	0	0	#	Na
658	1	1	1	14.1005	8.4603	16.9206	0	0	0	#	Na
659	1	1	1	11.2804	8.4603	19.7407	0	0	0	#	Na
660	1	1	1	14.1005	5.6402	19.7407	0	0	0	#	Na
661	1	2	-1	14.1005	5.6402	16.9206	0	0	0	#	Cl
662	1	2	-1	11.2804	8.4603	16.9206	0	0	0	#	Cl
663	1	2	-1	11.2804	5.6402	19.7407	0	0	0	#	Cl
664	1	2	-1	14.1005	8.4603	19.7407	0	0	0	#	Cl
665	1	1	1	16.9206	5.6402	16.9206	0	0	0	#	Na
666	1	1	1	19.7407	8.4603	16.9206	0	0	0	#	Na
667	1	1	1	16.9206	8.4603	19.7407	0	0	0	#	Na
668	1	1	1	19.7407	5.6402	19.7407	0	0	0	#	Na
669	1	2	-1	19.7407	5.6402	16.9206	0	0	0	#	Cl
670	1	2	-1	16.9206	8.4603	16.9206	0	0	0	#	Cl
671	1	2	-1	16.9206	5.6402	19.7407	0	0	0	#	Cl
672	1	2	-1	19.7407	8.4603	19.7407	0	0	0	#	Cl
673	1	1	1	22.5608	5.6402	16.9206	0	0	0	#	Na
674	1	1	1	25.3809	8.4603	16.9206	0	0	0	#	Na
675	1	1	1	22.5608	8.4603	19.7407	0	0	0	#	Na
676	1	1	1	25.3809	5.6402	19.7407	0	0	0	#	Na
677	1	2	-1	25.3809	5.6402	16.9206	0	0	0	#	Cl