ITEM: TIMESTEP
0
ITEM: NUMBER OF ATOMS
1000
ITEM: BOX BOUNDS pp pp pp
0.000000000 28.201000000
0.000000000 28.201000000
0.000000000 28.201000000
ITEM: ATOMS id type mol x y z
1 1 1 0.000000000 0.000000000 0.000000000 
2 1 1 2.820100000 2.820100000 0.000000000 
3 1 1 0.000000000 2.820100000 2.820100000 
4 1 1 2.820100000 0.000000000 2.820100000 
5 2 1 2.820100000 0.000000000 0.000000000 
6 2 1 0.000000000 2.820100000 0.000000000 
7 2 1 0.000000000 0.000000000 2.820100000 
8 2 1 2.820100000 2.820100000 2.820100000 
9 1 1 5.640200000 0.000000000 0.000000000 
10 1 1 8.460300000 2.820100000 0.000000000 
11 1 1 5.640200000 2.820100000 2.820100000 
12 1 1 8.460300000 0.000000000 2.820100000 
13 2 1 8.460300000 0.000000000 0.000000000 
14 2 1 5.640200000 2.820100000 0.000000000 
15 2 1 5.640200000 0.000000000 2.820100000 
16 2 1 8.460300000 2.820100000 2.820100000 
17 1 1 11.280400000 0.000000000 0.000000000 
18 1 1 14.100500000 2.820100000 0.000000000 
19 1 1 11.280400000 2.820100000 2.820100000 
20 1 1 14.100500000 0.000000000 2.820100000 
21 2 1 14.100500000 0.000000000 0.000000000 
22 2 1 11.280400000 2.820100000 0.000000000 
23 2 1 11.280400000 0.000000000 2.820100000 
24 2 1 14.100500000 2.820100000 2.820100000 
25 1 1 16.920600000 0.000000000 0.000000000 
26 1 1 19.740700000 2.820100000 0.000000000 
27 1 1 16.920600000 2.820100000 2.820100000 
28 1 1 19.740700000 0.000000000 2.820100000 
29 2 1 19.740700000 0.000000000 0.000000000 
30 2 1 16.920600000 2.820100000 0.000000000 
31 2 1 16.920600000 0.000000000 2.820100000 
32 2 1 19.740700000 2.820100000 2.820100000 
33 1 1 22.560800000 0.000000000 0.000000000 
34 1 1 25.380900000 2.820100000 0.000000000 
35 1 1 22.560800000 2.820100000 2.820100000 
36 1 1 25.380900000 0.000000000 2.820100000 
37 2 1 25.380900000 0.000000000 0.000000000 
38 2 1 22.560800000 2.820100000 0.000000000 
39 2 1 22.560800000 0.000000000 2.820100000 
40 2 1 25.380900000 2.820100000 2.820100000 
41 1 1 0.000000000 5.640200000 0.000000000 
42 1 1 2.820100000 8.460300000 0.000000000 
43 1 1 0.000000000 8.460300000 2.820100000 
44 1 1 2.820100000 5.640200000 2.820100000 
45 2 1 2.820100000 5.640200000 0.000000000 
46 2 1 0.000000000 8.460300000 0.000000000 
47 2 1 0.000000000 5.640200000 2.820100000 
48 2 1 2.820100000 8.460300000 2.820100000 
49 1 1 5.640200000 5.640200000 0.000000000 
50 1 1 8.460300000 8.460300000 0.000000000 
51 1 1 5.640200000 8.460300000 2.820100000 
52 1 1 8.460300000 5.640200000 2.820100000 
53 2 1 8.460300000 5.640200000 0.000000000 
54 2 1 5.640200000 8.460300000 0.000000000 
55 2 1 5.640200000 5.640200000 2.820100000 
56 2 1 8.460300000 8.460300000 2.820100000 
57 1 1 11.280400000 5.640200000 0.000000000 
58 1 1 14.100500000 8.460300000 0.000000000 
59 1 1 11.280400000 8.460300000 2.820100000 
60 1 1 14.100500000 5.640200000 2.820100000 
61 2 1 14.100500000 5.640200000 0.000000000 
62 2 1 11.280400000 8.460300000 0.000000000 
63 2 1 11.280400000 5.640200000 2.820100000 
64 2 1 14.100500000 8.460300000 2.820100000 
65 1 1 16.920600000 5.640200000 0.000000000 
66 1 1 19.740700000 8.460300000 0.000000000 
67 1 1 16.920600000 8.460300000 2.820100000 
68 1 1 19.740700000 5.640200000 2.820100000 
69 2 1 19.740700000 5.640200000 0.000000000 
70 2 1 16.920600000 8.460300000 0.000000000 
71 2 1 16.920600000 5.640200000 2.820100000 
72 2 1 19.740700000 8.460300000 2.820100000 
73 1 1 22.560800000 5.640200000 0.000000000 
74 1 1 25.380900000 8.460300000 0.000000000 
75 1 1 22.560800000 8.460300000 2.820100000 
76 1 1 25.380900000 5.640200000 2.820100000 
77 2 1 25.380900000 5.640200000 0.000000000 
78 2 1 22.560800000 8.460300000 0.000000000 
79 2 1 22.560800000 5.640200000 2.820100000 
80 2 1 25.380900000 8.460300000 2.820100000 
81 1 1 0.000000000 11.280400000 0.000000000 
82 1 1 2.820100000 14.100500000 0.000000000 
83 1 1 0.000000000 14.100500000 2.820100000 
84 1 1 2.820100000 11.280400000 2.820100000 
85 2 1 2.820100000 11.280400000 0.000000000 
86 2 1 0.000000000 14.100500000 0.000000000 
87 2 1 0.000000000 11.280400000 2.820100000 
88 2 1 2.820100000 14.100500000 2.820100000 
89 1 1 5.640200000 11.280400000 0.000000000 
90 1 1 8.460300000 14.100500000 0.000000000 
91 1 1 5.640200000 14.100500000 2.820100000 
92 1 1 8.460300000 11.280400000 2.820100000 
93 2 1 8.460300000 11.280400000 0.000000000 
94 2 1 5.640200000 14.100500000 0.000000000 
95 2 1 5.640200000 11.280400000 2.820100000 
96 2 1 8.460300000 14.100500000 2.820100000 
97 1 1 11.280400000 11.280400000 0.000000000 
98 1 1 14.100500000 14.100500000 0.000000000 
99 1 1 11.280400000 14.100500000 2.820100000 
100 1 1 14.100500000 11.280400000 2.820100000 
101 2 1 14.100500000 11.280400000 0.000000000 
102 2 1 11.280400000 14.100500000 0.000000000 
103 2 1 11.280400000 11.280400000 2.820100000 
104 2 1 14.100500000 14.100500000 2.820100000 
105 1 1 16.920600000 11.280400000 0.000000000 
106 1 1 19.740700000 14.100500000 0.000000000 
107 1 1 16.920600000 14.100500000 2.820100000 
108 1 1 19.740700000 11.280400000 2.820100000 
109 2 1 19.740700000 11.280400000 0.000000000 
110 2 1 16.920600000 14.100500000 0.000000000 
111 2 1 16.920600000 11.280400000 2.820100000 
112 2 1 19.740700000 14.100500000 2.820100000 
113 1 1 22.560800000 11.280400000 0.000000000 
114 1 1 25.380900000 14.100500000 0.000000000 
115 1 1 22.560800000 14.100500000 2.820100000 
116 1 1 25.380900000 11.280400000 2.820100000 
117 2 1 25.380900000 11.280400000 0.000000000 
118 2 1 22.560800000 14.100500000 0.000000000 
119 2 1 22.560800000 11.280400000 2.820100000 
120 2 1 25.380900000 14.100500000 2.820100000 
121 1 1 0.000000000 16.920600000 0.000000000 
122 1 1 2.820100000 19.740700000 0.000000000 
123 1 1 0.000000000 19.740700000 2.820100000 
124 1 1 2.820100000 16.920600000 2.820100000 
125 2 1 2.820100000 16.920600000 0.000000000 
126 2 1 0.000000000 19.740700000 0.000000000 
127 2 1 0.000000000 16.920600000 2.820100000 
128 2 1 2.820100000 19.740700000 2.820100000 
129 1 1 5.640200000 16.920600000 0.000000000 
130 1 1 8.460300000 19.740700000 0.000000000 
131 1 1 5.640200000 19.740700000 2.820100000 
132 1 1 8.460300000 16.920600000 2.820100000 
133 2 1 8.460300000 16.920600000 0.000000000 
134 2 1 5.640200000 19.740700000 0.000000000 
135 2 1 5.640200000 16.920600000 2.820100000 
136 2 1 8.460300000 19.740700000 2.820100000 
137 1 1 11.280400000 16.920600000 0.000000000 
138 1 1 14.100500000 19.740700000 0.000000000 
139 1 1 11.280400000 19.740700000 2.820100000 
140 1 1 14.100500000 16.920600000 2.820100000 
141 2 1 14.100500000 16.920600000 0.000000000 
142 2 1 11.280400000 19.740700000 0.000000000 
143 2 1 11.280400000 16.920600000 2.820100000 
144 2 1 14.100500000 19.740700000 2.820100000 
145 1 1 16.920600000 16.920600000 0.000000000 
146 1 1 19.740700000 19.740700000 0.000000000 
147 1 1 16.920600000 19.740700000 2.820100000 
148 1 1 19.740700000 16.920600000 2.820100000 
149 2 1 19.740700000 16.920600000 0.000000000 
150 2 1 16.920600000 19.740700000 0.000000000 
151 2 1 16.920600000 16.920600000 2.820100000 
152 2 1 19.740700000 19.740700000 2.820100000 
153 1 1 22.560800000 16.920600000 0.000000000 
154 1 1 25.380900000 19.740700000 0.000000000 
155 1 1 22.560800000 19.740700000 2.820100000 
156 1 1 25.380900000 16.920600000 2.820100000 
157 2 1 25.380900000 16.920600000 0.000000000 
158 2 1 22.560800000 19.740700000 0.000000000 
159 2 1 22.560800000 16.920600000 2.820100000 
160 2 1 25.380900000 19.740700000 2.820100000 
161 1 1 0.000000000 22.560800000 0.000000000 
162 1 1 2.820100000 25.380900000 0.000000000 
163 1 1 0.000000000 25.380900000 2.820100000 
164 1 1 2.820100000 22.560800000 2.820100000 
165 2 1 2.820100000 22.560800000 0.000000000 
166 2 1 0.000000000 25.380900000 0.000000000 
167 2 1 0.000000000 22.560800000 2.820100000 
168 2 1 2.820100000 25.380900000 2.820100000 
169 1 1 5.640200000 22.560800000 0.000000000 
170 1 1 8.460300000 25.380900000 0.000000000 
171 1 1 5.640200000 25.380900000 2.820100000 
172 1 1 8.460300000 22.560800000 2.820100000 
173 2 1 8.460300000 22.560800000 0.000000000 
174 2 1 5.640200000 25.380900000 0.000000000 
175 2 1 5.640200000 22.560800000 2.820100000 
176 2 1 8.460300000 25.380900000 2.820100000 
177 1 1 11.280400000 22.560800000 0.000000000 
178 1 1 14.100500000 25.380900000 0.000000000 
179 1 1 11.280400000 25.380900000 2.820100000 
180 1 1 14.100500000 22.560800000 2.820100000 
181 2 1 14.100500000 22.560800000 0.000000000 
182 2 1 11.280400000 25.380900000 0.000000000 
183 2 1 11.280400000 22.560800000 2.820100000 
184 2 1 14.100500000 25.380900000 2.820100000 
185 1 1 16.920600000 22.560800000 0.000000000 
186 1 1 19.740700000 25.380900000 0.000000000 
187 1 1 16.920600000 25.380900000 2.820100000 
188 1 1 19.740700000 22.560800000 2.820100000 
189 2 1 19.740700000 22.560800000 0.000000000 
190 2 1 16.920600000 25.380900000 0.000000000 
191 2 1 16.920600000 22.560800000 2.820100000 
192 2 1 19.740700000 25.380900000 2.820100000 
193 1 1 22.560800000 22.560800000 0.000000000 
194 1 1 25.380900000 25.380900000 0.000000000 
195 1 1 22.560800000 25.380900000 2.820100000 
196 1 1 25.380900000 22.560800000 2.820100000 
197 2 1 25.380900000 22.560800000 0.000000000 
198 2 1 22.560800000 25.380900000 0.000000000 
199 2 1 22.560800000 22.560800000 2.820100000 
200 2 1 25.380900000 25.380900000 2.820100000 
201 1 1 0.000000000 0.000000000 5.640200000 
202 1 1 2.820100000 2.820100000 5.640200000 
203 1 1 0.000000000 2.820100000 8.460300000 
204 1 1 2.820100000 0.000000000 8.460300000 
205 2 1 2.820100000 0.000000000 5.640200000 
206 2 1 0.000000000 2.820100000 5.640200000 
207 2 1 0.000000000 0.000000000 8.460300000 
208 2 1 2.820100000 2.820100000 8.460300000 
209 1 1 5.640200000 0.000000000 5.640200000 
210 1 1 8.460300000 2.820100000 5.640200000 
211 1 1 5.640200000 2.820100000 8.460300000 
212 1 1 8.460300000 0.000000000 8.460300000 
213 2 1 8.460300000 0.000000000 5.640200000 
214 2 1 5.640200000 2.820100000 5.640200000 
215 2 1 5.640200000 0.000000000 8.460300000 
216 2 1 8.460300000 2.820100000 8.460300000 
217 1 1 11.280400000 0.000000000 5.640200000 
218 1 1 14.100500000 2.820100000 5.640200000 
219 1 1 11.280400000 2.820100000 8.460300000 
220 1 1 14.100500000 0.000000000 8.460300000 
221 2 1 14.100500000 0.000000000 5.640200000 
222 2 1 11.280400000 2.820100000 5.640200000 
223 2 1 11.280400000 0.000000000 8.460300000 
224 2 1 14.100500000 2.820100000 8.460300000 
225 1 1 16.920600000 0.000000000 5.640200000 
226 1 1 19.740700000 2.820100000 5.640200000 
227 1 1 16.920600000 2.820100000 8.460300000 
228 1 1 19.740700000 0.000000000 8.460300000 
229 2 1 19.740700000 0.000000000 5.640200000 
230 2 1 16.920600000 2.820100000 5.640200000 
231 2 1 16.920600000 0.000000000 8.460300000 
232 2 1 19.740700000 2.820100000 8.460300000 
233 1 1 22.560800000 0.000000000 5.640200000 
234 1 1 25.380900000 2.820100000 5.640200000 
235 1 1 22.560800000 2.820100000 8.460300000 
236 1 1 25.380900000 0.000000000 8.460300000 
237 2 1 25.380900000 0.000000000 5.640200000 
238 2 1 22.560800000 2.820100000 5.640200000 
239 2 1 22.560800000 0.000000000 8.460300000 
240 2 1 25.380900000 2.820100000 8.460300000 
241 1 1 0.000000000 5.640200000 5.640200000 
242 1 1 2.820100000 8.460300000 5.640200000 
243 1 1 0.000000000 8.460300000 8.460300000 
244 1 1 2.820100000 5.640200000 8.460300000 
245 2 1 2.820100000 5.640200000 5.640200000 
246 2 1 0.000000000 8.460300000 5.640200000 
247 2 1 0.000000000 5.640200000 8.460300000 
248 2 1 2.820100000 8.460300000 8.460300000 
249 1 1 5.640200000 5.640200000 5.640200000 
250 1 1 8.460300000 8.460300000 5.640200000 
251 1 1 5.640200000 8.460300000 8.460300000 
252 1 1 8.460300000 5.640200000 8.460300000 
253 2 1 8.460300000 5.640200000 5.640200000 
254 2 1 5.640200000 8.460300000 5.640200000 
255 2 1 5.640200000 5.640200000 8.460300000 
256 2 1 8.460300000 8.460300000 8.460300000 
257 1 1 11.280400000 5.640200000 5.640200000 
258 1 1 14.100500000 8.460300000 5.640200000 
259 1 1 11.280400000 8.460300000 8.460300000 
260 1 1 14.100500000 5.640200000 8.460300000 
261 2 1 14.100500000 5.640200000 5.640200000 
262 2 1 11.280400000 8.460300000 5.640200000 
263 2 1 11.280400000 5.640200000 8.460300000 
264 2 1 14.100500000 8.460300000 8.460300000 
265 1 1 16.920600000 5.640200000 5.640200000 
266 1 1 19.740700000 8.460300000 5.640200000 
267 1 1 16.920600000 8.460300000 8.460300000 
268 1 1 19.740700000 5.640200000 8.460300000 
269 2 1 19.740700000 5.640200000 5.640200000 
270 2 1 16.920600000 8.460300000 5.640200000 
271 2 1 16.920600000 5.640200000 8.460300000 
272 2 1 19.740700000 8.460300000 8.460300000 
273 1 1 22.560800000 5.640200000 5.640200000 
274 1 1 25.380900000 8.460300000 5.640200000 
275 1 1 22.560800000 8.460300000 8.460300000 
276 1 1 25.380900000 5.640200000 8.460300000 
277 2 1 25.380900000 5.640200000 5.640200000 
278 2 1 22.560800000 8.460300000 5.640200000 
279 2 1 22.560800000 5.640200000 8.460300000 
280 2 1 25.380900000 8.460300000 8.460300000 
281 1 1 0.000000000 11.280400000 5.640200000 
282 1 1 2.820100000 14.100500000 5.640200000 
283 1 1 0.000000000 14.100500000 8.460300000 
284 1 1 2.820100000 11.280400000 8.460300000 
285 2 1 2.820100000 11.280400000 5.640200000 
286 2 1 0.000000000 14.100500000 5.640200000 
287 2 1 0.000000000 11.280400000 8.460300000 
288 2 1 2.820100000 14.100500000 8.460300000 
289 1 1 5.640200000 11.280400000 5.640200000 
290 1 1 8.460300000 14.100500000 5.640200000 
291 1 1 5.640200000 14.100500000 8.460300000 
292 1 1 8.460300000 11.280400000 8.460300000 
293 2 1 8.460300000 11.280400000 5.640200000 
294 2 1 5.640200000 14.100500000 5.640200000 
295 2 1 5.640200000 11.280400000 8.460300000 
296 2 1 8.460300000 14.100500000 8.460300000 
297 1 1 11.280400000 11.280400000 5.640200000 
298 1 1 14.100500000 14.100500000 5.640200000 
299 1 1 11.280400000 14.100500000 8.460300000 
300 1 1 14.100500000 11.280400000 8.460300000 
301 2 1 14.100500000 11.280400000 5.640200000 
302 2 1 11.280400000 14.100500000 5.640200000 
303 2 1 11.280400000 11.280400000 8.460300000 
304 2 1 14.100500000 14.100500000 8.460300000 
305 1 1 16.920600000 11.280400000 5.640200000 
306 1 1 19.740700000 14.100500000 5.640200000 
307 1 1 16.920600000 14.100500000 8.460300000 
308 1 1 19.740700000 11.280400000 8.460300000 
309 2 1 19.740700000 11.280400000 5.640200000 
310 2 1 16.920600000 14.100500000 5.640200000 
311 2 1 16.920600000 11.280400000 8.460300000 
312 2 1 19.740700000 14.100500000 8.460300000 
313 1 1 22.560800000 11.280400000 5.640200000 
314 1 1 25.380900000 14.100500000 5.640200000 
315 1 1 22.560800000 14.100500000 8.460300000 
316 1 1 25.380900000 11.280400000 8.460300000 
317 2 1 25.380900000 11.280400000 5.640200000 
318 2 1 22.560800000 14.100500000 5.640200000 
319 2 1 22.560800000 11.280400000 8.460300000 
320 2 1 25.380900000 14.100500000 8.460300000 
321 1 1 0.000000000 16.920600000 5.640200000 
322 1 1 2.820100000 19.740700000 5.640200000 
323 1 1 0.000000000 19.740700000 8.460300000 
324 1 1 2.820100000 16.920600000 8.460300000 
325 2 1 2.820100000 16.920600000 5.640200000 
326 2 1 0.000000000 19.740700000 5.640200000 
327 2 1 0.000000000 16.920600000 8.460300000 
328 2 1 2.820100000 19.740700000 8.460300000 
329 1 1 5.640200000 16.920600000 5.640200000 
330 1 1 8.460300000 19.740700000 5.640200000 
331 1 1 5.640200000 19.740700000 8.460300000 
332 1 1 8.460300000 16.920600000 8.460300000 
333 2 1 8.460300000 16.920600000 5.640200000 
334 2 1 5.640200000 19.740700000 5.640200000 
335 2 1 5.640200000 16.920600000 8.460300000 
336 2 1 8.460300000 19.740700000 8.460300000 
337 1 1 11.280400000 16.920600000 5.640200000 
338 1 1 14.100500000 19.740700000 5.640200000 
339 1 1 11.280400000 19.740700000 8.460300000 
340 1 1 14.100500000 16.920600000 8.460300000 
341 2 1 14.100500000 16.920600000 5.640200000 
342 2 1 11.280400000 19.740700000 5.640200000 
343 2 1 11.280400000 16.920600000 8.460300000 
344 2 1 14.100500000 19.740700000 8.460300000 
345 1 1 16.920600000 16.920600000 5.640200000 
346 1 1 19.740700000 19.740700000 5.640200000 
347 1 1 16.920600000 19.740700000 8.460300000 
348 1 1 19.740700000 16.920600000 8.460300000 
349 2 1 19.740700000 16.920600000 5.640200000 
350 2 1 16.920600000 19.740700000 5.640200000 
351 2 1 16.920600000 16.920600000 8.460300000 
352 2 1 19.740700000 19.740700000 8.460300000 
353 1 1 22.560800000 16.920600000 5.640200000 
354 1 1 25.380900000 19.740700000 5.640200000 
355 1 1 22.560800000 19.740700000 8.460300000 
356 1 1 25.380900000 16.920600000 8.460300000 
357 2 1 25.380900000 16.920600000 5.640200000 
358 2 1 22.560800000 19.740700000 5.640200000 
359 2 1 22.560800000 16.920600000 8.460300000 
360 2 1 25.380900000 19.740700000 8.460300000 
361 1 1 0.000000000 22.560800000 5.640200000 
362 1 1 2.820100000 25.380900000 5.640200000 
363 1 1 0.000000000 25.380900000 8.460300000 
364 1 1 2.820100000 22.560800000 8.460300000 
365 2 1 2.820100000 22.560800000 5.640200000 
366 2 1 0.000000000 25.380900000 5.640200000 
367 2 1 0.000000000 22.560800000 8.460300000 
368 2 1 2.820100000 25.380900000 8.460300000 
369 1 1 5.640200000 22.560800000 5.640200000 
370 1 1 8.460300000 25.380900000 5.640200000 
371 1 1 5.640200000 25.380900000 8.460300000 
372 1 1 8.460300000 22.560800000 8.460300000 
373 2 1 8.460300000 22.560800000 5.640200000 
374 2 1 5.640200000 25.380900000 5.640200000 
375 2 1 5.640200000 22.560800000 8.460300000 
376 2 1 8.460300000 25.380900000 8.460300000 
377 1 1 11.280400000 22.560800000 5.640200000 
378 1 1 14.100500000 25.380900000 5.640200000 
379 1 1 11.280400000 25.380900000 8.460300000 
380 1 1 14.100500000 22.560800000 8.460300000 
381 2 1 14.100500000 22.560800000 5.640200000 
382 2 1 11.280400000 25.380900000 5.640200000 
383 2 1 11.280400000 22.560800000 8.460300000 
384 2 1 14.100500000 25.380900000 8.460300000 
385 1 1 16.920600000 22.560800000 5.640200000 
386 1 1 19.740700000 25.380900000 5.640200000 
387 1 1 16.920600000 25.380900000 8.460300000 
388 1 1 19.740700000 22.560800000 8.460300000 
389 2 1 19.740700000 22.560800000 5.640200000 
390 2 1 16.920600000 25.380900000 5.640200000 
391 2 1 16.920600000 22.560800000 8.460300000 
392 2 1 19.740700000 25.380900000 8.460300000 
393 1 1 22.560800000 22.560800000 5.640200000 
394 1 1 25.380900000 25.380900000 5.640200000 
395 1 1 22.560800000 25.380900000 8.460300000 
396 1 1 25.380900000 22.560800000 8.460300000 
397 2 1 25.380900000 22.560800000 5.640200000 
398 2 1 22.560800000 25.380900000 5.640200000 
399 2 1 22.560800000 22.560800000 8.460300000 
400 2 1 25.380900000 25.380900000 8.460300000 
401 1 1 0.000000000 0.000000000 11.280400000 
402 1 1 2.820100000 2.820100000 11.280400000 
403 1 1 0.000000000 2.820100000 14.100500000 
404 1 1 2.820100000 0.000000000 14.100500000 
405 2 1 2.820100000 0.000000000 11.280400000 
406 2 1 0.000000000 2.820100000 11.280400000 
407 2 1 0.000000000 0.000000000 14.100500000 
408 2 1 2.820100000 2.820100000 14.100500000 
409 1 1 5.640200000 0.000000000 11.280400000 
410 1 1 8.460300000 2.820100000 11.280400000 
411 1 1 5.640200000 2.820100000 14.100500000 
412 1 1 8.460300000 0.000000000 14.100500000 
413 2 1 8.460300000 0.000000000 11.280400000 
414 2 1 5.640200000 2.820100000 11.280400000 
415 2 1 5.640200000 0.000000000 14.100500000 
416 2 1 8.460300000 2.820100000 14.100500000 
417 1 1 11.280400000 0.000000000 11.280400000 
418 1 1 14.100500000 2.820100000 11.280400000 
419 1 1 11.280400000 2.820100000 14.100500000 
420 1 1 14.100500000 0.000000000 14.100500000 
421 2 1 14.100500000 0.000000000 11.280400000 
422 2 1 11.280400000 2.820100000 11.280400000 
423 2 1 11.280400000 0.000000000 14.100500000 
424 2 1 14.100500000 2.820100000 14.100500000 
425 1 1 16.920600000 0.000000000 11.280400000 
426 1 1 19.740700000 2.820100000 11.280400000 
427 1 1 16.920600000 2.820100000 14.100500000 
428 1 1 19.740700000 0.000000000 14.100500000 
429 2 1 19.740700000 0.000000000 11.280400000 
430 2 1 16.920600000 2.820100000 11.280400000 
431 2 1 16.920600000 0.000000000 14.100500000 
432 2 1 19.740700000 2.820100000 14.100500000 
433 1 1 22.560800000 0.000000000 11.280400000 
434 1 1 25.380900000 2.820100000 11.280400000 
435 1 1 22.560800000 2.820100000 14.100500000 
436 1 1 25.380900000 0.000000000 14.100500000 
437 2 1 25.380900000 0.000000000 11.280400000 
438 2 1 22.560800000 2.820100000 11.280400000 
439 2 1 22.560800000 0.000000000 14.100500000 
440 2 1 25.380900000 2.820100000 14.100500000 
441 1 1 0.000000000 5.640200000 11.280400000 
442 1 1 2.820100000 8.460300000 11.280400000 
443 1 1 0.000000000 8.460300000 14.100500000 
444 1 1 2.820100000 5.640200000 14.100500000 
445 2 1 2.820100000 5.640200000 11.280400000 
446 2 1 0.000000000 8.460300000 11.280400000 
447 2 1 0.000000000 5.640200000 14.100500000 
448 2 1 2.820100000 8.460300000 14.100500000 
449 1 1 5.640200000 5.640200000 11.280400000 
450 1 1 8.460300000 8.460300000 11.280400000 
451 1 1 5.640200000 8.460300000 14.100500000 
452 1 1 8.460300000 5.640200000 14.100500000 
453 2 1 8.460300000 5.640200000 11.280400000 
454 2 1 5.640200000 8.460300000 11.280400000 
455 2 1 5.640200000 5.640200000 14.100500000 
456 2 1 8.460300000 8.460300000 14.100500000 
457 1 1 11.280400000 5.640200000 11.280400000 
458 1 1 14.100500000 8.460300000 11.280400000 
459 1 1 11.280400000 8.460300000 14.100500000 
460 1 1 14.100500000 5.640200000 14.100500000 
461 2 1 14.100500000 5.640200000 11.280400000 
462 2 1 11.280400000 8.460300000 11.280400000 
463 2 1 11.280400000 5.640200000 14.100500000 
464 2 1 14.100500000 8.460300000 14.100500000 
465 1 1 16.920600000 5.640200000 11.280400000 
466 1 1 19.740700000 8.460300000 11.280400000 
467 1 1 16.920600000 8.460300000 14.100500000 
468 1 1 19.740700000 5.640200000 14.100500000 
469 2 1 19.740700000 5.640200000 11.280400000 
470 2 1 16.920600000 8.460300000 11.280400000 
471 2 1 16.920600000 5.640200000 14.100500000 
472 2 1 19.740700000 8.460300000 14.100500000 
473 1 1 22.560800000 5.640200000 11.280400000 
474 1 1 25.380900000 8.460300000 11.280400000 
475 1 1 22.560800000 8.460300000 14.100500000 
476 1 1 25.380900000 5.640200000 14.100500000 
477 2 1 25.380900000 5.640200000 11.280400000 
478 2 1 22.560800000 8.460300000 11.280400000 
479 2 1 22.560800000 5.640200000 14.100500000 
480 2 1 25.380900000 8.460300000 14.100500000 
481 1 1 0.000000000 11.280400000 11.280400000 
482 1 1 2.820100000 14.100500000 11.280400000 
483 1 1 0.000000000 14.100500000 14.100500000 
484 1 1 2.820100000 11.280400000 14.100500000 
485 2 1 2.820100000 11.280400000 11.280400000 
486 2 1 0.000000000 14.100500000 11.280400000 
487 2 1 0.000000000 11.280400000 14.100500000 
488 2 1 2.820100000 14.100500000 14.100500000 
489 1 1 5.640200000 11.280400000 11.280400000 
490 1 1 8.460300000 14.100500000 11.280400000 
491 1 1 5.640200000 14.100500000 14.100500000 
492 1 1 8.460300000 11.280400000 14.100500000 
493 2 1 8.460300000 11.280400000 11.280400000 
494 2 1 5.640200000 14.100500000 11.280400000 
495 2 1 5.640200000 11.280400000 14.100500000 
496 2 1 8.460300000 14.100500000 14.100500000 
497 1 1 11.280400000 11.280400000 11.280400000 
498 1 1 14.100500000 14.100500000 11.280400000 
499 1 1 11.280400000 14.100500000 14.100500000 
500 1 1 14.100500000 11.280400000 14.100500000 
501 2 1 14.100500000 11.280400000 11.280400000 
502 2 1 11.280400000 14.100500000 11.280400000 
503 2 1 11.280400000 11.280400000 14.100500000 
504 2 1 14.100500000 14.100500000 14.100500000 
505 1 1 16.920600000 11.280400000 11.280400000 
506 1 1 19.740700000 14.100500000 11.280400000 
507 1 1 16.920600000 14.100500000 14.100500000 
508 1 1 19.740700000 11.280400000 14.100500000 
509 2 1 19.740700000 11.280400000 11.280400000 
510 2 1 16.920600000 14.100500000 11.280400000 
511 2 1 16.920600000 11.280400000 14.100500000 
512 2 1 19.740700000 14.100500000 14.100500000 
513 1 1 22.560800000 11.280400000 11.280400000 
514 1 1 25.380900000 14.100500000 11.280400000 
515 1 1 22.560800000 14.100500000 14.100500000 
516 1 1 25.380900000 11.280400000 14.100500000 
517 2 1 25.380900000 11.280400000 11.280400000 
518 2 1 22.560800000 14.100500000 11.280400000 
519 2 1 22.560800000 11.280400000 14.100500000 
520 2 1 25.380900000 14.100500000 14.100500000 
521 1 1 0.000000000 16.920600000 11.280400000 
522 1 1 2.820100000 19.740700000 11.280400000 
523 1 1 0.000000000 19.740700000 14.100500000 
524 1 1 2.820100000 16.920600000 14.100500000 
525 2 1 2.820100000 16.920600000 11.280400000 
526 2 1 0.000000000 19.740700000 11.280400000 
527 2 1 0.000000000 16.920600000 14.100500000 
528 2 1 2.820100000 19.740700000 14.100500000 
529 1 1 5.640200000 16.920600000 11.280400000 
530 1 1 8.460300000 19.740700000 11.280400000 
531 1 1 5.640200000 19.740700000 14.100500000 
532 1 1 8.460300000 16.920600000 14.100500000 
533 2 1 8.460300000 16.920600000 11.280400000 
534 2 1 5.640200000 19.740700000 11.280400000 
535 2 1 5.640200000 16.920600000 14.100500000 
536 2 1 8.460300000 19.740700000 14.100500000 
537 1 1 11.280400000 16.920600000 11.280400000 
538 1 1 14.100500000 19.740700000 11.280400000 
539 1 1 11.280400000 19.740700000 14.100500000 
540 1 1 14.100500000 16.920600000 14.100500000 
541 2 1 14.100500000 16.920600000 11.280400000 
542 2 1 11.280400000 19.740700000 11.280400000 
543 2 1 11.280400000 16.920600000 14.100500000 
544 2 1 14.100500000 19.740700000 14.100500000 
545 1 1 16.920600000 16.920600000 11.280400000 
546 1 1 19.740700000 19.740700000 11.280400000 
547 1 1 16.920600000 19.740700000 14.100500000 
548 1 1 19.740700000 16.920600000 14.100500000 
549 2 1 19.740700000 16.920600000 11.280400000 
550 2 1 16.920600000 19.740700000 11.280400000 
551 2 1 16.920600000 16.920600000 14.100500000 
552 2 1 19.740700000 19.740700000 14.100500000 
553 1 1 22.560800000 16.920600000 11.280400000 
554 1 1 25.380900000 19.740700000 11.280400000 
555 1 1 22.560800000 19.740700000 14.100500000 
556 1 1 25.380900000 16.920600000 14.100500000 
557 2 1 25.380900000 16.920600000 11.280400000 
558 2 1 22.560800000 19.740700000 11.280400000 
559 2 1 22.560800000 16.920600000 14.100500000 
560 2 1 25.380900000 19.740700000 14.100500000 
561 1 1 0.000000000 22.560800000 11.280400000 
562 1 1 2.820100000 25.380900000 11.280400000 
563 1 1 0.000000000 25.380900000 14.100500000 
564 1 1 2.820100000 22.560800000 14.100500000 
565 2 1 2.820100000 22.560800000 11.280400000 
566 2 1 0.000000000 25.380900000 11.280400000 
567 2 1 0.000000000 22.560800000 14.100500000 
568 2 1 2.820100000 25.380900000 14.100500000 
569 1 1 5.640200000 22.560800000 11.280400000 
570 1 1 8.460300000 25.380900000 11.280400000 
571 1 1 5.640200000 25.380900000 14.100500000 
572 1 1 8.460300000 22.560800000 14.100500000 
573 2 1 8.460300000 22.560800000 11.280400000 
574 2 1 5.640200000 25.380900000 11.280400000 
575 2 1 5.640200000 22.560800000 14.100500000 
576 2 1 8.460300000 25.380900000 14.100500000 
577 1 1 11.280400000 22.560800000 11.280400000 
578 1 1 14.100500000 25.380900000 11.280400000 
579 1 1 11.280400000 25.380900000 14.100500000 
580 1 1 14.100500000 22.560800000 14.100500000 
581 2 1 14.100500000 22.560800000 11.280400000 
582 2 1 11.280400000 25.380900000 11.280400000 
583 2 1 11.280400000 22.560800000 14.100500000 
584 2 1 14.100500000 25.380900000 14.100500000 
585 1 1 16.920600000 22.560800000 11.280400000 
586 1 1 19.740700000 25.380900000 11.280400000 
587 1 1 16.920600000 25.380900000 14.100500000 
588 1 1 19.740700000 22.560800000 14.100500000 
589 2 1 19.740700000 22.560800000 11.280400000 
590 2 1 16.920600000 25.380900000 11.280400000 
591 2 1 16.920600000 22.560800000 14.100500000 
592 2 1 19.740700000 25.380900000 14.100500000 
593 1 1 22.560800000 22.560800000 11.280400000 
594 1 1 25.380900000 25.380900000 11.280400000 
595 1 1 22.560800000 25.380900000 14.100500000 
596 1 1 25.380900000 22.560800000 14.100500000 
597 2 1 25.380900000 22.560800000 11.280400000 
598 2 1 22.560800000 25.380900000 11.280400000 
599 2 1 22.560800000 22.560800000 14.100500000 
600 2 1 25.380900000 25.380900000 14.100500000 
601 1 1 0.000000000 0.000000000 16.920600000 
602 1 1 2.820100000 2.820100000 16.920600000 
603 1 1 0.000000000 2.820100000 19.740700000 
604 1 1 2.820100000 0.000000000 19.740700000 
605 2 1 2.820100000 0.000000000 16.920600000 
606 2 1 0.000000000 2.820100000 16.920600000 
607 2 1 0.000000000 0.000000000 19.740700000 
608 2 1 2.820100000 2.820100000 19.740700000 
609 1 1 5.640200000 0.000000000 16.920600000 
610 1 1 8.460300000 2.820100000 16.920600000 
611 1 1 5.640200000 2.820100000 19.740700000 
612 1 1 8.460300000 0.000000000 19.740700000 
613 2 1 8.460300000 0.000000000 16.920600000 
614 2 1 5.640200000 2.820100000 16.920600000 
615 2 1 5.640200000 0.000000000 19.740700000 
616 2 1 8.460300000 2.820100000 19.740700000 
617 1 1 11.280400000 0.000000000 16.920600000 
618 1 1 14.100500000 2.820100000 16.920600000 
619 1 1 11.280400000 2.820100000 19.740700000 
620 1 1 14.100500000 0.000000000 19.740700000 
621 2 1 14.100500000 0.000000000 16.920600000 
622 2 1 11.280400000 2.820100000 16.920600000 
623 2 1 11.280400000 0.000000000 19.740700000 
624 2 1 14.100500000 2.820100000 19.740700000 
625 1 1 16.920600000 0.000000000 16.920600000 
626 1 1 19.740700000 2.820100000 16.920600000 
627 1 1 16.920600000 2.820100000 19.740700000 
628 1 1 19.740700000 0.000000000 19.740700000 
629 2 1 19.740700000 0.000000000 16.920600000 
630 2 1 16.920600000 2.820100000 16.920600000 
631 2 1 16.920600000 0.000000000 19.740700000 
632 2 1 19.740700000 2.820100000 19.740700000 
633 1 1 22.560800000 0.000000000 16.920600000 
634 1 1 25.380900000 2.820100000 16.920600000 
635 1 1 22.560800000 2.820100000 19.740700000 
636 1 1 25.380900000 0.000000000 19.740700000 
637 2 1 25.380900000 0.000000000 16.920600000 
638 2 1 22.560800000 2.820100000 16.920600000 
639 2 1 22.560800000 0.000000000 19.740700000 
640 2 1 25.380900000 2.820100000 19.740700000 
641 1 1 0.000000000 5.640200000 16.920600000 
642 1 1 2.820100000 8.460300000 16.920600000 
643 1 1 0.000000000 8.460300000 19.740700000 