ITEM: TIMESTEP
0
ITEM: NUMBER OF ATOMS
1000
ITEM: BOX BOUNDS pp pp pp
0.000000000 28.201000000
0.000000000 28.201000000
0.000000000 28.201000000
ITEM: ATOMS id type mol x y z
1 1 1 0.0 0.0 0.0 
2 1 1 2.8201 2.8201 0.0 
3 1 1 0.0 2.8201 2.8201 
4 1 1 2.8201 0.0 2.8201 
5 2 1 2.8201 0.0 0.0 
6 2 1 0.0 2.8201 0.0 
7 2 1 0.0 0.0 2.8201 
8 2 1 2.8201 2.8201 2.8201 
9 1 1 5.6402 0.0 0.0 
10 1 1 8.4603 2.8201 0.0 
11 1 1 5.6402 2.8201 2.8201 
12 1 1 8.4603 0.0 2.8201 
13 2 1 8.4603 0.0 0.0 
14 2 1 5.6402 2.8201 0.0 
15 2 1 5.6402 0.0 2.8201 
16 2 1 8.4603 2.8201 2.8201 
17 1 1 11.2804 0.0 0.0 
18 1 1 14.1005 2.8201 0.0 
19 1 1 11.2804 2.8201 2.8201 
20 1 1 14.1005 0.0 2.8201 
21 2 1 14.1005 0.0 0.0 
22 2 1 11.2804 2.8201 0.0 
23 2 1 11.2804 0.0 2.8201 
24 2 1 14.1005 2.8201 2.8201 
25 1 1 16.9206 0.0 0.0 
26 1 1 19.7407 2.8201 0.0 
27 1 1 16.9206 2.8201 2.8201 
28 1 1 19.7407 0.0 2.8201 
29 2 1 19.7407 0.0 0.0 
30 2 1 16.9206 2.8201 0.0 
31 2 1 16.9206 0.0 2.8201 
32 2 1 19.7407 2.8201 2.8201 
33 1 1 22.5608 0.0 0.0 
34 1 1 25.3809 2.8201 0.0 
35 1 1 22.5608 2.8201 2.8201 
36 1 1 25.3809 0.0 2.8201 
37 2 1 25.3809 0.0 0.0 
38 2 1 22.5608 2.8201 0.0 
39 2 1 22.5608 0.0 2.8201 
40 2 1 25.3809 2.8201 2.8201 
41 1 1 0.0 5.6402 0.0 
42 1 1 2.8201 8.4603 0.0 
43 1 1 0.0 8.4603 2.8201 
44 1 1 2.8201 5.6402 2.8201 
45 2 1 2.8201 5.6402 0.0 
46 2 1 0.0 8.4603 0.0 
47 2 1 0.0 5.6402 2.8201 
48 2 1 2.8201 8.4603 2.8201 
49 1 1 5.6402 5.6402 0.0 
50 1 1 8.4603 8.4603 0.0 
51 1 1 5.6402 8.4603 2.8201 
52 1 1 8.4603 5.6402 2.8201 
53 2 1 8.4603 5.6402 0.0 
54 2 1 5.6402 8.4603 0.0 
55 2 1 5.6402 5.6402 2.8201 
56 2 1 8.4603 8.4603 2.8201 
57 1 1 11.2804 5.6402 0.0 
58 1 1 14.1005 8.4603 0.0 
59 1 1 11.2804 8.4603 2.8201 
60 1 1 14.1005 5.6402 2.8201 
61 2 1 14.1005 5.6402 0.0 
62 2 1 11.2804 8.4603 0.0 
63 2 1 11.2804 5.6402 2.8201 
64 2 1 14.1005 8.4603 2.8201 
65 1 1 16.9206 5.6402 0.0 
66 1 1 19.7407 8.4603 0.0 
67 1 1 16.9206 8.4603 2.8201 
68 1 1 19.7407 5.6402 2.8201 
69 2 1 19.7407 5.6402 0.0 
70 2 1 16.9206 8.4603 0.0 
71 2 1 16.9206 5.6402 2.8201 
72 2 1 19.7407 8.4603 2.8201 
73 1 1 22.5608 5.6402 0.0 
74 1 1 25.3809 8.4603 0.0 
75 1 1 22.5608 8.4603 2.8201 
76 1 1 25.3809 5.6402 2.8201 
77 2 1 25.3809 5.6402 0.0 
78 2 1 22.5608 8.4603 0.0 
79 2 1 22.5608 5.6402 2.8201 
80 2 1 25.3809 8.4603 2.8201 
81 1 1 0.0 11.2804 0.0 
82 1 1 2.8201 14.1005 0.0 
83 1 1 0.0 14.1005 2.8201 
84 1 1 2.8201 11.2804 2.8201 
85 2 1 2.8201 11.2804 0.0 
86 2 1 0.0 14.1005 0.0 
87 2 1 0.0 11.2804 2.8201 
88 2 1 2.8201 14.1005 2.8201 
89 1 1 5.6402 11.2804 0.0 
90 1 1 8.4603 14.1005 0.0 
91 1 1 5.6402 14.1005 2.8201 
92 1 1 8.4603 11.2804 2.8201 
93 2 1 8.4603 11.2804 0.0 
94 2 1 5.6402 14.1005 0.0 
95 2 1 5.6402 11.2804 2.8201 
96 2 1 8.4603 14.1005 2.8201 
97 1 1 11.2804 11.2804 0.0 
98 1 1 14.1005 14.1005 0.0 
99 1 1 11.2804 14.1005 2.8201 
100 1 1 14.1005 11.2804 2.8201 
101 2 1 14.1005 11.2804 0.0 
102 2 1 11.2804 14.1005 0.0 
103 2 1 11.2804 11.2804 2.8201 
104 2 1 14.1005 14.1005 2.8201 
105 1 1 16.9206 11.2804 0.0 
106 1 1 19.7407 14.1005 0.0 
107 1 1 16.9206 14.1005 2.8201 
108 1 1 19.7407 11.2804 2.8201 
109 2 1 19.7407 11.2804 0.0 
110 2 1 16.9206 14.1005 0.0 
111 2 1 16.9206 11.2804 2.8201 
112 2 1 19.7407 14.1005 2.8201 
113 1 1 22.5608 11.2804 0.0 
114 1 1 25.3809 14.1005 0.0 
115 1 1 22.5608 14.1005 2.8201 
116 1 1 25.3809 11.2804 2.8201 
117 2 1 25.3809 11.2804 0.0 
118 2 1 22.5608 14.1005 0.0 
119 2 1 22.5608 11.2804 2.8201 
120 2 1 25.3809 14.1005 2.8201 
121 1 1 0.0 16.9206 0.0 
122 1 1 2.8201 19.7407 0.0 
123 1 1 0.0 19.7407 2.8201 
124 1 1 2.8201 16.9206 2.8201 
125 2 1 2.8201 16.9206 0.0 
126 2 1 0.0 19.7407 0.0 
127 2 1 0.0 16.9206 2.8201 
128 2 1 2.8201 19.7407 2.8201 
129 1 1 5.6402 16.9206 0.0 
130 1 1 8.4603 19.7407 0.0 
131 1 1 5.6402 19.7407 2.8201 
132 1 1 8.4603 16.9206 2.8201 
133 2 1 8.4603 16.9206 0.0 
134 2 1 5.6402 19.7407 0.0 
135 2 1 5.6402 16.9206 2.8201 
136 2 1 8.4603 19.7407 2.8201 
137 1 1 11.2804 16.9206 0.0 
138 1 1 14.1005 19.7407 0.0 
139 1 1 11.2804 19.7407 2.8201 
140 1 1 14.1005 16.9206 2.8201 
141 2 1 14.1005 16.9206 0.0 
142 2 1 11.2804 19.7407 0.0 
143 2 1 11.2804 16.9206 2.8201 
144 2 1 14.1005 19.7407 2.8201 
145 1 1 16.9206 16.9206 0.0 
146 1 1 19.7407 19.7407 0.0 
147 1 1 16.9206 19.7407 2.8201 
148 1 1 19.7407 16.9206 2.8201 
149 2 1 19.7407 16.9206 0.0 
150 2 1 16.9206 19.7407 0.0 
151 2 1 16.9206 16.9206 2.8201 
152 2 1 19.7407 19.7407 2.8201 
153 1 1 22.5608 16.9206 0.0 
154 1 1 25.3809 19.7407 0.0 
155 1 1 22.5608 19.7407 2.8201 
156 1 1 25.3809 16.9206 2.8201 
157 2 1 25.3809 16.9206 0.0 
158 2 1 22.5608 19.7407 0.0 
159 2 1 22.5608 16.9206 2.8201 
160 2 1 25.3809 19.7407 2.8201 
161 1 1 0.0 22.5608 0.0 
162 1 1 2.8201 25.3809 0.0 
163 1 1 0.0 25.3809 2.8201 
164 1 1 2.8201 22.5608 2.8201 
165 2 1 2.8201 22.5608 0.0 
166 2 1 0.0 25.3809 0.0 
167 2 1 0.0 22.5608 2.8201 
168 2 1 2.8201 25.3809 2.8201 
169 1 1 5.6402 22.5608 0.0 
170 1 1 8.4603 25.3809 0.0 
171 1 1 5.6402 25.3809 2.8201 
172 1 1 8.4603 22.5608 2.8201 
173 2 1 8.4603 22.5608 0.0 
174 2 1 5.6402 25.3809 0.0 
175 2 1 5.6402 22.5608 2.8201 
176 2 1 8.4603 25.3809 2.8201 
177 1 1 11.2804 22.5608 0.0 
178 1 1 14.1005 25.3809 0.0 
179 1 1 11.2804 25.3809 2.8201 
180 1 1 14.1005 22.5608 2.8201 
181 2 1 14.1005 22.5608 0.0 
182 2 1 11.2804 25.3809 0.0 
183 2 1 11.2804 22.5608 2.8201 
184 2 1 14.1005 25.3809 2.8201 
185 1 1 16.9206 22.5608 0.0 
186 1 1 19.7407 25.3809 0.0 
187 1 1 16.9206 25.3809 2.8201 
188 1 1 19.7407 22.5608 2.8201 
189 2 1 19.7407 22.5608 0.0 
190 2 1 16.9206 25.3809 0.0 
191 2 1 16.9206 22.5608 2.8201 
192 2 1 19.7407 25.3809 2.8201 
193 1 1 22.5608 22.5608 0.0 
194 1 1 25.3809 25.3809 0.0 
195 1 1 22.5608 25.3809 2.8201 
196 1 1 25.3809 22.5608 2.8201 
197 2 1 25.3809 22.5608 0.0 
198 2 1 22.5608 25.3809 0.0 
199 2 1 22.5608 22.5608 2.8201 
200 2 1 25.3809 25.3809 2.8201 
201 1 1 0.0 0.0 5.6402 
202 1 1 2.8201 2.8201 5.6402 
203 1 1 0.0 2.8201 8.4603 
204 1 1 2.8201 0.0 8.4603 
205 2 1 2.8201 0.0 5.6402 
206 2 1 0.0 2.8201 5.6402 
207 2 1 0.0 0.0 8.4603 
208 2 1 2.8201 2.8201 8.4603 
209 1 1 5.6402 0.0 5.6402 
210 1 1 8.4603 2.8201 5.6402 
211 1 1 5.6402 2.8201 8.4603 
212 1 1 8.4603 0.0 8.4603 
213 2 1 8.4603 0.0 5.6402 
214 2 1 5.6402 2.8201 5.6402 
215 2 1 5.6402 0.0 8.4603 
216 2 1 8.4603 2.8201 8.4603 
217 1 1 11.2804 0.0 5.6402 
218 1 1 14.1005 2.8201 5.6402 
219 1 1 11.2804 2.8201 8.4603 
220 1 1 14.1005 0.0 8.4603 
221 2 1 14.1005 0.0 5.6402 
222 2 1 11.2804 2.8201 5.6402 
223 2 1 11.2804 0.0 8.4603 
224 2 1 14.1005 2.8201 8.4603 
225 1 1 16.9206 0.0 5.6402 
226 1 1 19.7407 2.8201 5.6402 
227 1 1 16.9206 2.8201 8.4603 
228 1 1 19.7407 0.0 8.4603 
229 2 1 19.7407 0.0 5.6402 
230 2 1 16.9206 2.8201 5.6402 
231 2 1 16.9206 0.0 8.4603 
232 2 1 19.7407 2.8201 8.4603 
233 1 1 22.5608 0.0 5.6402 
234 1 1 25.3809 2.8201 5.6402 
235 1 1 22.5608 2.8201 8.4603 
236 1 1 25.3809 0.0 8.4603 
237 2 1 25.3809 0.0 5.6402 
238 2 1 22.5608 2.8201 5.6402 
239 2 1 22.5608 0.0 8.4603 
240 2 1 25.3809 2.8201 8.4603 
241 1 1 0.0 5.6402 5.6402 
242 1 1 2.8201 8.4603 5.6402 
243 1 1 0.0 8.4603 8.4603 
244 1 1 2.8201 5.6402 8.4603 
245 2 1 2.8201 5.6402 5.6402 
246 2 1 0.0 8.4603 5.6402 
247 2 1 0.0 5.6402 8.4603 
248 2 1 2.8201 8.4603 8.4603 
249 1 1 5.6402 5.6402 5.6402 
250 1 1 8.4603 8.4603 5.6402 
251 1 1 5.6402 8.4603 8.4603 
252 1 1 8.4603 5.6402 8.4603 
253 2 1 8.4603 5.6402 5.6402 
254 2 1 5.6402 8.4603 5.6402 
255 2 1 5.6402 5.6402 8.4603 
256 2 1 8.4603 8.4603 8.4603 
257 1 1 11.2804 5.6402 5.6402 
258 1 1 14.1005 8.4603 5.6402 
259 1 1 11.2804 8.4603 8.4603 
260 1 1 14.1005 5.6402 8.4603 
261 2 1 14.1005 5.6402 5.6402 
262 2 1 11.2804 8.4603 5.6402 
263 2 1 11.2804 5.6402 8.4603 
264 2 1 14.1005 8.4603 8.4603 
265 1 1 16.9206 5.6402 5.6402 
266 1 1 19.7407 8.4603 5.6402 
267 1 1 16.9206 8.4603 8.4603 
268 1 1 19.7407 5.6402 8.4603 
269 2 1 19.7407 5.6402 5.6402 
270 2 1 16.9206 8.4603 5.6402 
271 2 1 16.9206 5.6402 8.4603 
272 2 1 19.7407 8.4603 8.4603 
273 1 1 22.5608 5.6402 5.6402 
274 1 1 25.3809 8.4603 5.6402 
275 1 1 22.5608 8.4603 8.4603 
276 1 1 25.3809 5.6402 8.4603 
277 2 1 25.3809 5.6402 5.6402 
278 2 1 22.5608 8.4603 5.6402 
279 2 1 22.5608 5.6402 8.4603 
280 2 1 25.3809 8.4603 8.4603 
281 1 1 0.0 11.2804 5.6402 
282 1 1 2.8201 14.1005 5.6402 
283 1 1 0.0 14.1005 8.4603 
284 1 1 2.8201 11.2804 8.4603 
285 2 1 2.8201 11.2804 5.6402 
286 2 1 0.0 14.1005 5.6402 
287 2 1 0.0 11.2804 8.4603 
288 2 1 2.8201 14.1005 8.4603 
289 1 1 5.6402 11.2804 5.6402 
290 1 1 8.4603 14.1005 5.6402 
291 1 1 5.6402 14.1005 8.4603 
292 1 1 8.4603 11.2804 8.4603 
293 2 1 8.4603 11.2804 5.6402 
294 2 1 5.6402 14.1005 5.6402 
295 2 1 5.6402 11.2804 8.4603 
296 2 1 8.4603 14.1005 8.4603 
297 1 1 11.2804 11.2804 5.6402 
298 1 1 14.1005 14.1005 5.6402 
299 1 1 11.2804 14.1005 8.4603 
300 1 1 14.1005 11.2804 8.4603 
301 2 1 14.1005 11.2804 5.6402 
302 2 1 11.2804 14.1005 5.6402 
303 2 1 11.2804 11.2804 8.4603 
304 2 1 14.1005 14.1005 8.4603 
305 1 1 16.9206 11.2804 5.6402 
306 1 1 19.7407 14.1005 5.6402 
307 1 1 16.9206 14.1005 8.4603 
308 1 1 19.7407 11.2804 8.4603 
309 2 1 19.7407 11.2804 5.6402 
310 2 1 16.9206 14.1005 5.6402 
311 2 1 16.9206 11.2804 8.4603 
312 2 1 19.7407 14.1005 8.4603 
313 1 1 22.5608 11.2804 5.6402 
314 1 1 25.3809 14.1005 5.6402 
315 1 1 22.5608 14.1005 8.4603 
316 1 1 25.3809 11.2804 8.4603 
317 2 1 25.3809 11.2804 5.6402 
318 2 1 22.5608 14.1005 5.6402 
319 2 1 22.5608 11.2804 8.4603 
320 2 1 25.3809 14.1005 8.4603 
321 1 1 0.0 16.9206 5.6402 
322 1 1 2.8201 19.7407 5.6402 
323 1 1 0.0 19.7407 8.4603 
324 1 1 2.8201 16.9206 8.4603 
325 2 1 2.8201 16.9206 5.6402 
326 2 1 0.0 19.7407 5.6402 
327 2 1 0.0 16.9206 8.4603 
328 2 1 2.8201 19.7407 8.4603 
329 1 1 5.6402 16.9206 5.6402 
330 1 1 8.4603 19.7407 5.6402 
331 1 1 5.6402 19.7407 8.4603 
332 1 1 8.4603 16.9206 8.4603 
333 2 1 8.4603 16.9206 5.6402 
334 2 1 5.6402 19.7407 5.6402 
335 2 1 5.6402 16.9206 8.4603 
336 2 1 8.4603 19.7407 8.4603 
337 1 1 11.2804 16.9206 5.6402 
338 1 1 14.1005 19.7407 5.6402 
339 1 1 11.2804 19.7407 8.4603 
340 1 1 14.1005 16.9206 8.4603 
341 2 1 14.1005 16.9206 5.6402 
342 2 1 11.2804 19.7407 5.6402 
343 2 1 11.2804 16.9206 8.4603 
344 2 1 14.1005 19.7407 8.4603 
345 1 1 16.9206 16.9206 5.6402 
346 1 1 19.7407 19.7407 5.6402 
347 1 1 16.9206 19.7407 8.4603 
348 1 1 19.7407 16.9206 8.4603 
349 2 1 19.7407 16.9206 5.6402 
350 2 1 16.9206 19.7407 5.6402 
351 2 1 16.9206 16.9206 8.4603 
352 2 1 19.7407 19.7407 8.4603 
353 1 1 22.5608 16.9206 5.6402 
354 1 1 25.3809 19.7407 5.6402 
355 1 1 22.5608 19.7407 8.4603 
356 1 1 25.3809 16.9206 8.4603 
357 2 1 25.3809 16.9206 5.6402 
358 2 1 22.5608 19.7407 5.6402 
359 2 1 22.5608 16.9206 8.4603 
360 2 1 25.3809 19.7407 8.4603 
361 1 1 0.0 22.5608 5.6402 
362 1 1 2.8201 25.3809 5.6402 
363 1 1 0.0 25.3809 8.4603 
364 1 1 2.8201 22.5608 8.4603 
365 2 1 2.8201 22.5608 5.6402 
366 2 1 0.0 25.3809 5.6402 
367 2 1 0.0 22.5608 8.4603 
368 2 1 2.8201 25.3809 8.4603 
369 1 1 5.6402 22.5608 5.6402 
370 1 1 8.4603 25.3809 5.6402 
371 1 1 5.6402 25.3809 8.4603 
372 1 1 8.4603 22.5608 8.4603 
373 2 1 8.4603 22.5608 5.6402 
374 2 1 5.6402 25.3809 5.6402 
375 2 1 5.6402 22.5608 8.4603 
376 2 1 8.4603 25.3809 8.4603 
377 1 1 11.2804 22.5608 5.6402 
378 1 1 14.1005 25.3809 5.6402 
379 1 1 11.2804 25.3809 8.4603 
380 1 1 14.1005 22.5608 8.4603 
381 2 1 14.1005 22.5608 5.6402 
382 2 1 11.2804 25.3809 5.6402 
383 2 1 11.2804 22.5608 8.4603 
384 2 1 14.1005 25.3809 8.4603 
385 1 1 16.9206 22.5608 5.6402 
386 1 1 19.7407 25.3809 5.6402 
387 1 1 16.9206 25.3809 8.4603 
388 1 1 19.7407 22.5608 8.4603 
389 2 1 19.7407 22.5608 5.6402 
390 2 1 16.9206 25.3809 5.6402 
391 2 1 16.9206 22.5608 8.4603 
392 2 1 19.7407 25.3809 8.4603 
393 1 1 22.5608 22.5608 5.6402 
394 1 1 25.3809 25.3809 5.6402 
395 1 1 22.5608 25.3809 8.4603 
396 1 1 25.3809 22.5608 8.4603 
397 2 1 25.3809 22.5608 5.6402 
398 2 1 22.5608 25.3809 5.6402 
399 2 1 22.5608 22.5608 8.4603 
400 2 1 25.3809 25.3809 8.4603 
401 1 1 0.0 0.0 11.2804 
402 1 1 2.8201 2.8201 11.2804 
403 1 1 0.0 2.8201 14.1005 
404 1 1 2.8201 0.0 14.1005 
405 2 1 2.8201 0.0 11.2804 
406 2 1 0.0 2.8201 11.2804 
407 2 1 0.0 0.0 14.1005 
408 2 1 2.8201 2.8201 14.1005 
409 1 1 5.6402 0.0 11.2804 
410 1 1 8.4603 2.8201 11.2804 
411 1 1 5.6402 2.8201 14.1005 
412 1 1 8.4603 0.0 14.1005 
413 2 1 8.4603 0.0 11.2804 
414 2 1 5.6402 2.8201 11.2804 
415 2 1 5.6402 0.0 14.1005 
416 2 1 8.4603 2.8201 14.1005 
417 1 1 11.2804 0.0 11.2804 
418 1 1 14.1005 2.8201 11.2804 
419 1 1 11.2804 2.8201 14.1005 
420 1 1 14.1005 0.0 14.1005 
421 2 1 14.1005 0.0 11.2804 
422 2 1 11.2804 2.8201 11.2804 
423 2 1 11.2804 0.0 14.1005 
424 2 1 14.1005 2.8201 14.1005 
425 1 1 16.9206 0.0 11.2804 
426 1 1 19.7407 2.8201 11.2804 
427 1 1 16.9206 2.8201 14.1005 
428 1 1 19.7407 0.0 14.1005 
429 2 1 19.7407 0.0 11.2804 
430 2 1 16.9206 2.8201 11.2804 
431 2 1 16.9206 0.0 14.1005 
432 2 1 19.7407 2.8201 14.1005 
433 1 1 22.5608 0.0 11.2804 
434 1 1 25.3809 2.8201 11.2804 
435 1 1 22.5608 2.8201 14.1005 
436 1 1 25.3809 0.0 14.1005 
437 2 1 25.3809 0.0 11.2804 
438 2 1 22.5608 2.8201 11.2804 
439 2 1 22.5608 0.0 14.1005 
440 2 1 25.3809 2.8201 14.1005 
441 1 1 0.0 5.6402 11.2804 
442 1 1 2.8201 8.4603 11.2804 
443 1 1 0.0 8.4603 14.1005 
444 1 1 2.8201 5.6402 14.1005 
445 2 1 2.8201 5.6402 11.2804 
446 2 1 0.0 8.4603 11.2804 
447 2 1 0.0 5.6402 14.1005 
448 2 1 2.8201 8.4603 14.1005 
449 1 1 5.6402 5.6402 11.2804 
450 1 1 8.4603 8.4603 11.2804 
451 1 1 5.6402 8.4603 14.1005 
452 1 1 8.4603 5.6402 14.1005 
453 2 1 8.4603 5.6402 11.2804 
454 2 1 5.6402 8.4603 11.2804 
455 2 1 5.6402 5.6402 14.1005 
456 2 1 8.4603 8.4603 14.1005 
457 1 1 11.2804 5.6402 11.2804 
458 1 1 14.1005 8.4603 11.2804 
459 1 1 11.2804 8.4603 14.1005 
460 1 1 14.1005 5.6402 14.1005 
461 2 1 14.1005 5.6402 11.2804 
462 2 1 11.2804 8.4603 11.2804 
463 2 1 11.2804 5.6402 14.1005 
464 2 1 14.1005 8.4603 14.1005 
465 1 1 16.9206 5.6402 11.2804 
466 1 1 19.7407 8.4603 11.2804 
467 1 1 16.9206 8.4603 14.1005 
468 1 1 19.7407 5.6402 14.1005 
469 2 1 19.7407 5.6402 11.2804 
470 2 1 16.9206 8.4603 11.2804 
471 2 1 16.9206 5.6402 14.1005 
472 2 1 19.7407 8.4603 14.1005 
473 1 1 22.5608 5.6402 11.2804 
474 1 1 25.3809 8.4603 11.2804 
475 1 1 22.5608 8.4603 14.1005 
476 1 1 25.3809 5.6402 14.1005 
477 2 1 25.3809 5.6402 11.2804 
478 2 1 22.5608 8.4603 11.2804 
479 2 1 22.5608 5.6402 14.1005 
480 2 1 25.3809 8.4603 14.1005 
481 1 1 0.0 11.2804 11.2804 
482 1 1 2.8201 14.1005 11.2804 
483 1 1 0.0 14.1005 14.1005 
484 1 1 2.8201 11.2804 14.1005 
485 2 1 2.8201 11.2804 11.2804 
486 2 1 0.0 14.1005 11.2804 
487 2 1 0.0 11.2804 14.1005 
488 2 1 2.8201 14.1005 14.1005 
489 1 1 5.6402 11.2804 11.2804 
490 1 1 8.4603 14.1005 11.2804 
491 1 1 5.6402 14.1005 14.1005 
492 1 1 8.4603 11.2804 14.1005 
493 2 1 8.4603 11.2804 11.2804 
494 2 1 5.6402 14.1005 11.2804 
495 2 1 5.6402 11.2804 14.1005 
496 2 1 8.4603 14.1005 14.1005 
497 1 1 11.2804 11.2804 11.2804 
498 1 1 14.1005 14.1005 11.2804 
499 1 1 11.2804 14.1005 14.1005 
500 1 1 14.1005 11.2804 14.1005 
501 2 1 14.1005 11.2804 11.2804 
502 2 1 11.2804 14.1005 11.2804 
503 2 1 11.2804 11.2804 14.1005 
504 2 1 14.1005 14.1005 14.1005 
505 1 1 16.9206 11.2804 11.2804 
506 1 1 19.7407 14.1005 11.2804 
507 1 1 16.9206 14.1005 14.1005 
508 1 1 19.7407 11.2804 14.1005 
509 2 1 19.7407 11.2804 11.2804 
510 2 1 16.9206 14.1005 11.2804 
511 2 1 16.9206 11.2804 14.1005 
512 2 1 19.7407 14.1005 14.1005 
513 1 1 22.5608 11.2804 11.2804 
514 1 1 25.3809 14.1005 11.2804 
515 1 1 22.5608 14.1005 14.1005 
516 1 1 25.3809 11.2804 14.1005 
517 2 1 25.3809 11.2804 11.2804 
518 2 1 22.5608 14.1005 11.2804 
519 2 1 22.5608 11.2804 14.1005 
520 2 1 25.3809 14.1005 14.1005 
521 1 1 0.0 16.9206 11.2804 
522 1 1 2.8201 19.7407 11.2804 
523 1 1 0.0 19.7407 14.1005 
524 1 1 2.8201 16.9206 14.1005 
525 2 1 2.8201 16.9206 11.2804 
526 2 1 0.0 19.7407 11.2804 
527 2 1 0.0 16.9206 14.1005 
528 2 1 2.8201 19.7407 14.1005 
529 1 1 5.6402 16.9206 11.2804 
530 1 1 8.4603 19.7407 11.2804 
531 1 1 5.6402 19.7407 14.1005 
532 1 1 8.4603 16.9206 14.1005 
533 2 1 8.4603 16.9206 11.2804 
534 2 1 5.6402 19.7407 11.2804 
535 2 1 5.6402 16.9206 14.1005 
536 2 1 8.4603 19.7407 14.1005 
537 1 1 11.2804 16.9206 11.2804 
538 1 1 14.1005 19.7407 11.2804 
539 1 1 11.2804 19.7407 14.1005 
540 1 1 14.1005 16.9206 14.1005 
541 2 1 14.1005 16.9206 11.2804 
542 2 1 11.2804 19.7407 11.2804 
543 2 1 11.2804 16.9206 14.1005 
544 2 1 14.1005 19.7407 14.1005 
545 1 1 16.9206 16.9206 11.2804 
546 1 1 19.7407 19.7407 11.2804 
547 1 1 16.9206 19.7407 14.1005 
548 1 1 19.7407 16.9206 14.1005 
549 2 1 19.7407 16.9206 11.2804 
550 2 1 16.9206 19.7407 11.2804 
551 2 1 16.9206 16.9206 14.1005 
552 2 1 19.7407 19.7407 14.1005 
553 1 1 22.5608 16.9206 11.2804 
554 1 1 25.3809 19.7407 11.2804 
555 1 1 22.5608 19.7407 14.1005 
556 1 1 25.3809 16.9206 14.1005 
557 2 1 25.3809 16.9206 11.2804 
558 2 1 22.5608 19.7407 11.2804 
559 2 1 22.5608 16.9206 14.1005 
560 2 1 25.3809 19.7407 14.1005 
561 1 1 0.0 22.5608 11.2804 
562 1 1 2.8201 25.3809 11.2804 
563 1 1 0.0 25.3809 14.1005 
564 1 1 2.8201 22.5608 14.1005 
565 2 1 2.8201 22.5608 11.2804 
566 2 1 0.0 25.3809 11.2804 
567 2 1 0.0 22.5608 14.1005 
568 2 1 2.8201 25.3809 14.1005 
569 1 1 5.6402 22.5608 11.2804 
570 1 1 8.4603 25.3809 11.2804 
571 1 1 5.6402 25.3809 14.1005 
572 1 1 8.4603 22.5608 14.1005 
573 2 1 8.4603 22.5608 11.2804 
574 2 1 5.6402 25.3809 11.2804 
575 2 1 5.6402 22.5608 14.1005 
576 2 1 8.4603 25.3809 14.1005 
577 1 1 11.2804 22.5608 11.2804 
578 1 1 14.1005 25.3809 11.2804 
579 1 1 11.2804 25.3809 14.1005 
580 1 1 14.1005 22.5608 14.1005 
581 2 1 14.1005 22.5608 11.2804 
582 2 1 11.2804 25.3809 11.2804 
583 2 1 11.2804 22.5608 14.1005 
584 2 1 14.1005 25.3809 14.1005 
585 1 1 16.9206 22.5608 11.2804 
586 1 1 19.7407 25.3809 11.2804 
587 1 1 16.9206 25.3809 14.1005 
588 1 1 19.7407 22.5608 14.1005 
589 2 1 19.7407 22.5608 11.2804 
590 2 1 16.9206 25.3809 11.2804 
591 2 1 16.9206 22.5608 14.1005 
592 2 1 19.7407 25.3809 14.1005 
593 1 1 22.5608 22.5608 11.2804 
594 1 1 25.3809 25.3809 11.2804 
595 1 1 22.5608 25.3809 14.1005 
596 1 1 25.3809 22.5608 14.1005 
597 2 1 25.3809 22.5608 11.2804 
598 2 1 22.5608 25.3809 11.2804 
599 2 1 22.5608 22.5608 14.1005 
600 2 1 25.3809 25.3809 14.1005 
601 1 1 0.0 0.0 16.9206 
602 1 1 2.8201 2.8201 16.9206 
603 1 1 0.0 2.8201 19.7407 
604 1 1 2.8201 0.0 19.7407 
605 2 1 2.8201 0.0 16.9206 
606 2 1 0.0 2.8201 16.9206 
607 2 1 0.0 0.0 19.7407 
608 2 1 2.8201 2.8201 19.7407 
609 1 1 5.6402 0.0 16.9206 
610 1 1 8.4603 2.8201 16.9206 
611 1 1 5.6402 2.8201 19.7407 
612 1 1 8.4603 0.0 19.7407 
613 2 1 8.4603 0.0 16.9206 
614 2 1 5.6402 2.8201 16.9206 
615 2 1 5.6402 0.0 19.7407 
616 2 1 8.4603 2.8201 19.7407 
617 1 1 11.2804 0.0 16.9206 
618 1 1 14.1005 2.8201 16.9206 
619 1 1 11.2804 2.8201 19.7407 
620 1 1 14.1005 0.0 19.7407 
621 2 1 14.1005 0.0 16.9206 
622 2 1 11.2804 2.8201 16.9206 
623 2 1 11.2804 0.0 19.7407 
624 2 1 14.1005 2.8201 19.7407 
625 1 1 16.9206 0.0 16.9206 
626 1 1 19.7407 2.8201 16.9206 
627 1 1 16.9206 2.8201 19.7407 
628 1 1 19.7407 0.0 19.7407 
629 2 1 19.7407 0.0 16.9206 
630 2 1 16.9206 2.8201 16.9206 
631 2 1 16.9206 0.0 19.7407 
632 2 1 19.7407 2.8201 19.7407 
633 1 1 22.5608 0.0 16.9206 
634 1 1 25.3809 2.8201 16.9206 
635 1 1 22.5608 2.8201 19.7407 
636 1 1 25.3809 0.0 19.7407 
637 2 1 25.3809 0.0 16.9206 
638 2 1 22.5608 2.8201 16.9206 
639 2 1 22.5608 0.0 19.7407 
640 2 1 25.3809 2.8201 19.7407 
641 1 1 0.0 5.6402 16.9206 
642 1 1 2.8201 8.4603 16.9206 
643 1 1 0.0 8.4603 19.7407 
644 1 1 2.8201 5.6402 19.7407 
645 2 1 2.8201 5.6402 16.9206 
646 2 1 0.0 8.4603 16.9206 
647 2 1 0.0 5.6402 19.7407 
648 2 1 2.8201 8.4603 19.7407 
649 1 1 5.6402 5.6402 16.9206 
650 1 1 8.4603 8.4603 16.9206 
651 1 1 5.6402 8.4603 19.7407 
652 1 1 8.4603 5.6402 19.7407 
653 2 1 8.4603 5.6402 16.9206 
654 2 1 5.6402 8.4603 16.9206 
655 2 1 5.6402 5.6402 19.7407 
656 2 1 8.4603 8.4603 19.7407 
657 1 1 11.2804 5.6402 16.9206 
658 1 1 14.1005 8.4603 16.9206 
659 1 1 11.2804 8.4603 19.7407 
660 1 1 14.1005 5.6402 19.7407 
661 2 1 14.1005 5.6402 16.9206 
662 2 1 11.2804 8.4603 16.9206 
663 2 1 11.2804 5.6402 19.7407 
664 2 1 14.1005 8.4603 19.7407 
665 1 1 16.9206 5.6402 16.9206 
666 1 1 19.7407 8.4603 16.9206 
667 1 1 16.9206 8.4603 19.7407 
668 1 1 19.7407 5.6402 19.7407 
669 2 1 19.7407 5.6402 16.9206 
670 2 1 16.9206 8.4603 16.9206 
671 2 1 16.9206 5.6402 19.7407 
672 2 1 19.7407 8.4603 19.7407 
673 1 1 22.5608 5.6402 16.9206 
674 1 1 25.3809 8.4603 16.9206 
675 1 1 22.5608 8.4603 19.7407 
676 1 1 25.3809 5.6402 19.7407 
677 2 1 25.3809 5.6402 16.9206 
678 2 1 22.5608 8.4603 16.9206 
679 2 1 22.5608 5.6402 19.7407 
680 2 1 25.3809 8.4603 19.7407 
681 1 1 0.0 11.2804 16.9206 
682 1 1 2.8201 14.1005 16.9206 
683 1 1 0.0 14.1005 19.7407 
684 1 1 2.8201 11.2804 19.7407 
685 2 1 2.8201 11.2804 16.9206 
686 2 1 0.0 14.1005 16.9206 
687 2 1 0.0 11.2804 19.7407 
688 2 1 2.8201 14.1005 19.7407 
689 1 1 5.6402 11.2804 16.9206 
690 1 1 8.4603 14.1005 16.9206 
691 1 1 5.6402 14.1005 19.7407 
692 1 1 8.4603 11.2804 19.7407 
693 2 1 8.4603 11.2804 16.9206 
694 2 1 5.6402 14.1005 16.9206 
695 2 1 5.6402 11.2804 19.7407 
696 2 1 8.4603 14.1005 19.7407 
697 1 1 11.2804 11.2804 16.9206 
698 1 1 14.1005 14.1005 16.9206 
699 1 1 11.2804 14.1005 19.7407 
700 1 1 14.1005 11.2804 19.7407 
701 2 1 14.1005 11.2804 16.9206 
702 2 1 11.2804 14.1005 16.9206 
703 2 1 11.2804 11.2804 19.7407 
704 2 1 14.1005 14.1005 19.7407 
705 1 1 16.9206 11.2804 16.9206 
706 1 1 19.7407 14.1005 16.9206 
707 1 1 16.9206 14.1005 19.7407 
708 1 1 19.7407 11.2804 19.7407 
709 2 1 19.7407 11.2804 16.9206 
710 2 1 16.9206 14.1005 16.9206 
711 2 1 16.9206 11.2804 19.7407 
712 2 1 19.7407 14.1005 19.7407 
713 1 1 22.5608 11.2804 16.9206 
714 1 1 25.3809 14.1005 16.9206 
715 1 1 22.5608 14.1005 19.7407 
716 1 1 25.3809 11.2804 19.7407 
717 2 1 25.3809 11.2804 16.9206 
718 2 1 22.5608 14.1005 16.9206 
719 2 1 22.5608 11.2804 19.7407 
720 2 1 25.3809 14.1005 19.7407 
721 1 1 0.0 16.9206 16.9206 
722 1 1 2.8201 19.7407 16.9206 
723 1 1 0.0 19.7407 19.7407 
724 1 1 2.8201 16.9206 19.7407 
725 2 1 2.8201 16.9206 16.9206 
726 2 1 0.0 19.7407 16.9206 
727 2 1 0.0 16.9206 19.7407 
728 2 1 2.8201 19.7407 19.7407 
729 1 1 5.6402 16.9206 16.9206 
730 1 1 8.4603 19.7407 16.9206 
731 1 1 5.6402 19.7407 19.7407 
732 1 1 8.4603 16.9206 19.7407 
733 2 1 8.4603 16.9206 16.9206 
734 2 1 5.6402 19.7407 16.9206 
735 2 1 5.6402 16.9206 19.7407 
736 2 1 8.4603 19.7407 19.7407 
737 1 1 11.2804 16.9206 16.9206 
738 1 1 14.1005 19.7407 16.9206 
739 1 1 11.2804 19.7407 19.7407 
740 1 1 14.1005 16.9206 19.7407 
741 2 1 14.1005 16.9206 16.9206 
742 2 1 11.2804 19.7407 16.9206 
743 2 1 11.2804 16.9206 19.7407 
744 2 1 14.1005 19.7407 19.7407 
745 1 1 16.9206 16.9206 16.9206 
746 1 1 19.7407 19.7407 16.9206 
747 1 1 16.9206 19.7407 19.7407 
748 1 1 19.7407 16.9206 19.7407 
749 2 1 19.7407 16.9206 16.9206 
750 2 1 16.9206 19.7407 16.9206 
751 2 1 16.9206 16.9206 19.7407 
752 2 1 19.7407 19.7407 19.7407 
753 1 1 22.5608 16.9206 16.9206 
754 1 1 25.3809 19.7407 16.9206 
755 1 1 22.5608 19.7407 19.7407 
756 1 1 25.3809 16.9206 19.7407 
757 2 1 25.3809 16.9206 16.9206 
758 2 1 22.5608 19.7407 16.9206 
759 2 1 22.5608 16.9206 19.7407 
760 2 1 25.3809 19.7407 19.7407 
761 1 1 0.0 22.5608 16.9206 
762 1 1 2.8201 25.3809 16.9206 
763 1 1 0.0 25.3809 19.7407 
764 1 1 2.8201 22.5608 19.7407 
765 2 1 2.8201 22.5608 16.9206 
766 2 1 0.0 25.3809 16.9206 
767 2 1 0.0 22.5608 19.7407 
768 2 1 2.8201 25.3809 19.7407 
769 1 1 5.6402 22.5608 16.9206 
770 1 1 8.4603 25.3809 16.9206 
771 1 1 5.6402 25.3809 19.7407 
772 1 1 8.4603 22.5608 19.7407 
773 2 1 8.4603 22.5608 16.9206 
774 2 1 5.6402 25.3809 16.9206 
775 2 1 5.6402 22.5608 19.7407 
776 2 1 8.4603 25.3809 19.7407 
777 1 1 11.2804 22.5608 16.9206 
778 1 1 14.1005 25.3809 16.9206 
779 1 1 11.2804 25.3809 19.7407 
780 1 1 14.1005 22.5608 19.7407 
781 2 1 14.1005 22.5608 16.9206 
782 2 1 11.2804 25.3809 16.9206 
783 2 1 11.2804 22.5608 19.7407 
784 2 1 14.1005 25.3809 19.7407 
785 1 1 16.9206 22.5608 16.9206 
786 1 1 19.7407 25.3809 16.9206 
787 1 1 16.9206 25.3809 19.7407 
788 1 1 19.7407 22.5608 19.7407 
789 2 1 19.7407 22.5608 16.9206 
790 2 1 16.9206 25.3809 16.9206 
791 2 1 16.9206 22.5608 19.7407 
792 2 1 19.7407 25.3809 19.7407 
793 1 1 22.5608 22.5608 16.9206 
794 1 1 25.3809 25.3809 16.9206 
795 1 1 22.5608 25.3809 19.7407 
796 1 1 25.3809 22.5608 19.7407 
797 2 1 25.3809 22.5608 16.9206 
798 2 1 22.5608 25.3809 16.9206 
799 2 1 22.5608 22.5608 19.7407 
800 2 1 25.3809 25.3809 19.7407 
801 1 1 0.0 0.0 22.5608 
802 1 1 2.8201 2.8201 22.5608 
803 1 1 0.0 2.8201 25.3809 
804 1 1 2.8201 0.0 25.3809 
805 2 1 2.8201 0.0 22.5608 
806 2 1 0.0 2.8201 22.5608 
807 2 1 0.0 0.0 25.3809 
808 2 1 2.8201 2.8201 25.3809 
809 1 1 5.6402 0.0 22.5608 
810 1 1 8.4603 2.8201 22.5608 
811 1 1 5.6402 2.8201 25.3809 
812 1 1 8.4603 0.0 25.3809 
813 2 1 8.4603 0.0 22.5608 
814 2 1 5.6402 2.8201 22.5608 
815 2 1 5.6402 0.0 25.3809 
816 2 1 8.4603 2.8201 25.3809 
817 1 1 11.2804 0.0 22.5608 
818 1 1 14.1005 2.8201 22.5608 
819 1 1 11.2804 2.8201 25.3809 
820 1 1 14.1005 0.0 25.3809 
821 2 1 14.1005 0.0 22.5608 
822 2 1 11.2804 2.8201 22.5608 
823 2 1 11.2804 0.0 25.3809 
824 2 1 14.1005 2.8201 25.3809 
825 1 1 16.9206 0.0 22.5608 
826 1 1 19.7407 2.8201 22.5608 
827 1 1 16.9206 2.8201 25.3809 
828 1 1 19.7407 0.0 25.3809 
829 2 1 19.7407 0.0 22.5608 
830 2 1 16.9206 2.8201 22.5608 
831 2 1 16.9206 0.0 25.3809 
832 2 1 19.7407 2.8201 25.3809 
833 1 1 22.5608 0.0 22.5608 
834 1 1 25.3809 2.8201 22.5608 
835 1 1 22.5608 2.8201 25.3809 
836 1 1 25.3809 0.0 25.3809 
837 2 1 25.3809 0.0 22.5608 
838 2 1 22.5608 2.8201 22.5608 
839 2 1 22.5608 0.0 25.3809 
840 2 1 25.3809 2.8201 25.3809 
841 1 1 0.0 5.6402 22.5608 
842 1 1 2.8201 8.4603 22.5608 
843 1 1 0.0 8.4603 25.3809 
844 1 1 2.8201 5.6402 25.3809 
845 2 1 2.8201 5.6402 22.5608 
846 2 1 0.0 8.4603 22.5608 
847 2 1 0.0 5.6402 25.3809 
848 2 1 2.8201 8.4603 25.3809 
849 1 1 5.6402 5.6402 22.5608 
850 1 1 8.4603 8.4603 22.5608 
851 1 1 5.6402 8.4603 25.3809 
852 1 1 8.4603 5.6402 25.3809 
853 2 1 8.4603 5.6402 22.5608 
854 2 1 5.6402 8.4603 22.5608 
855 2 1 5.6402 5.6402 25.3809 
856 2 1 8.4603 8.4603 25.3809 
857 1 1 11.2804 5.6402 22.5608 
858 1 1 14.1005 8.4603 22.5608 
859 1 1 11.2804 8.4603 25.3809 
860 1 1 14.1005 5.6402 25.3809 
861 2 1 14.1005 5.6402 22.5608 
862 2 1 11.2804 8.4603 22.5608 
863 2 1 11.2804 5.6402 25.3809 
864 2 1 14.1005 8.4603 25.3809 
865 1 1 16.9206 5.6402 22.5608 
866 1 1 19.7407 8.4603 22.5608 
867 1 1 16.9206 8.4603 25.3809 
868 1 1 19.7407 5.6402 25.3809 
869 2 1 19.7407 5.6402 22.5608 
870 2 1 16.9206 8.4603 22.5608 
871 2 1 16.9206 5.6402 25.3809 
872 2 1 19.7407 8.4603 25.3809 
873 1 1 22.5608 5.6402 22.5608 
874 1 1 25.3809 8.4603 22.5608 
875 1 1 22.5608 8.4603 25.3809 
876 1 1 25.3809 5.6402 25.3809 
877 2 1 25.3809 5.6402 22.5608 
878 2 1 22.5608 8.4603 22.5608 
879 2 1 22.5608 5.6402 25.3809 
880 2 1 25.3809 8.4603 25.3809 
881 1 1 0.0 11.2804 22.5608 
882 1 1 2.8201 14.1005 22.5608 
883 1 1 0.0 14.1005 25.3809 
884 1 1 2.8201 11.2804 25.3809 
885 2 1 2.8201 11.2804 22.5608 
886 2 1 0.0 14.1005 22.5608 
887 2 1 0.0 11.2804 25.3809 
888 2 1 2.8201 14.1005 25.3809 
889 1 1 5.6402 11.2804 22.5608 
890 1 1 8.4603 14.1005 22.5608 
891 1 1 5.6402 14.1005 25.3809 
892 1 1 8.4603 11.2804 25.3809 
893 2 1 8.4603 11.2804 22.5608 
894 2 1 5.6402 14.1005 22.5608 
895 2 1 5.6402 11.2804 25.3809 
896 2 1 8.4603 14.1005 25.3809 
897 1 1 11.2804 11.2804 22.5608 
898 1 1 14.1005 14.1005 22.5608 
899 1 1 11.2804 14.1005 25.3809 
900 1 1 14.1005 11.2804 25.3809 
901 2 1 14.1005 11.2804 22.5608 
902 2 1 11.2804 14.1005 22.5608 
903 2 1 11.2804 11.2804 25.3809 
904 2 1 14.1005 14.1005 25.3809 
905 1 1 16.9206 11.2804 22.5608 
906 1 1 19.7407 14.1005 22.5608 
907 1 1 16.9206 14.1005 25.3809 
908 1 1 19.7407 11.2804 25.3809 
909 2 1 19.7407 11.2804 22.5608 
910 2 1 16.9206 14.1005 22.5608 
911 2 1 16.9206 11.2804 25.3809 
912 2 1 19.7407 14.1005 25.3809 
913 1 1 22.5608 11.2804 22.5608 
914 1 1 25.3809 14.1005 22.5608 
915 1 1 22.5608 14.1005 25.3809 
916 1 1 25.3809 11.2804 25.3809 
917 2 1 25.3809 11.2804 22.5608 
918 2 1 22.5608 14.1005 22.5608 
919 2 1 22.5608 11.2804 25.3809 
920 2 1 25.3809 14.1005 25.3809 
921 1 1 0.0 16.9206 22.5608 
922 1 1 2.8201 19.7407 22.5608 
923 1 1 0.0 19.7407 25.3809 
924 1 1 2.8201 16.9206 25.3809 
925 2 1 2.8201 16.9206 22.5608 
926 2 1 0.0 19.7407 22.5608 
927 2 1 0.0 16.9206 25.3809 
928 2 1 2.8201 19.7407 25.3809 
929 1 1 5.6402 16.9206 22.5608 
930 1 1 8.4603 19.7407 22.5608 
931 1 1 5.6402 19.7407 25.3809 
932 1 1 8.4603 16.9206 25.3809 
933 2 1 8.4603 16.9206 22.5608 
934 2 1 5.6402 19.7407 22.5608 
935 2 1 5.6402 16.9206 25.3809 
936 2 1 8.4603 19.7407 25.3809 
937 1 1 11.2804 16.9206 22.5608 
938 1 1 14.1005 19.7407 22.5608 
939 1 1 11.2804 19.7407 25.3809 
940 1 1 14.1005 16.9206 25.3809 
941 2 1 14.1005 16.9206 22.5608 
942 2 1 11.2804 19.7407 22.5608 
943 2 1 11.2804 16.9206 25.3809 
944 2 1 14.1005 19.7407 25.3809 
945 1 1 16.9206 16.9206 22.5608 
946 1 1 19.7407 19.7407 22.5608 
947 1 1 16.9206 19.7407 25.3809 
948 1 1 19.7407 16.9206 25.3809 
949 2 1 19.7407 16.9206 22.5608 
950 2 1 16.9206 19.7407 22.5608 
951 2 1 16.9206 16.9206 25.3809 
952 2 1 19.7407 19.7407 25.3809 
953 1 1 22.5608 16.9206 22.5608 
954 1 1 25.3809 19.7407 22.5608 
955 1 1 22.5608 19.7407 25.3809 
956 1 1 25.3809 16.9206 25.3809 
957 2 1 25.3809 16.9206 22.5608 
958 2 1 22.5608 19.7407 22.5608 
959 2 1 22.5608 16.9206 25.3809 
960 2 1 25.3809 19.7407 25.3809 
961 1 1 0.0 22.5608 22.5608 
962 1 1 2.8201 25.3809 22.5608 
963 1 1 0.0 25.3809 25.3809 
964 1 1 2.8201 22.5608 25.3809 
965 2 1 2.8201 22.5608 22.5608 
966 2 1 0.0 25.3809 22.5608 
967 2 1 0.0 22.5608 25.3809 
968 2 1 2.8201 25.3809 25.3809 
969 1 1 5.6402 22.5608 22.5608 
970 1 1 8.4603 25.3809 22.5608 