

4 atoms
0 bonds
0 angles
0 dihedrals

1 atom types
0 bond types
0 angle types
0 dihedral types

0.000000000000000 24.595121469999999 xlo xhi
0.000000000000000 85.199999999999989 ylo yhi
0.000000000000000 100.000000000000000 zlo zhi

Masses

1	12.011	#	C

Atoms

1 1 1 0 12.297560729999999 0.0 0.0
2 1 1 0 0.0 14.2 0.0
3 1 1 0 0.0 42.599999999999994 0.0
4 1 1 0 12.297560729999999 56.8 0.0
