3
Lattice="3.19894899432225 -0.0 0.0 1.599474497161125 2.7703698558099883 0.0 0.0 0.0 12.731047254212095" Properties=species:S:1:pos:R:3:forces:R:3 energy=-758.425781843113 virial="-0.010359109532904896 0.0 -0.0 0.0 -0.010359109532904896 0.0 -0.0 0.0 -0.04433698880083295" stress="-145.18171400458473 0.0 -0.0 0.0 -145.18171400458473 0.0 -0.0 0.0 -621.3777359396227" job_done=T pbc="T T T"
Mo      -0.00096330       0.00488992       0.05446984       0.00000000       0.00000077      -0.00005605
S        1.59851088       0.92834675       1.58429515      -0.00000000       0.00000026       0.00013653
Se       1.59851088       0.92834675      -1.63876499       0.00000000      -0.00000103      -0.00008048
