
     Program PWSCF v.7.3.1 starts on 10Jun2025 at 12:29:38 

     This program is part of the open-source Quantum ESPRESSO suite
     for quantum simulation of materials; please cite
         "P. Giannozzi et al., J. Phys.:Condens. Matter 21 395502 (2009);
         "P. Giannozzi et al., J. Phys.:Condens. Matter 29 465901 (2017);
         "P. Giannozzi et al., J. Chem. Phys. 152 154105 (2020);
          URL http://www.quantum-espresso.org", 
     in publications or presentations arising from this work. More details at
     http://www.quantum-espresso.org/quote

     Parallel version (MPI), running on     7 processors

     MPI processes distributed on     1 nodes
     55784 MiB available memory on the printing compute node when the environment starts

     Waiting for input...
     Reading input from standard input

     Current dimensions of program PWSCF are:
     Max number of different atomic species (ntypx) = 10
     Max number of k-points (npk) =  40000
     Max angular momentum in pseudopotentials (lmaxx) =  4
     Found identity + (  0.3333  0.0000  0.0000) symmetry
     This is a supercell, fractional translations are disabled

     R & G space division:  proc/nbgrp/npool/nimage =       7
     Subspace diagonalization in iterative solution of the eigenvalue problem:
     a serial algorithm will be used


     Parallelization info
     --------------------
     sticks:   dense  smooth     PW     G-vecs:    dense   smooth      PW
     Min         994     994    263               143028   143028   19515
     Max         995     995    264               143045   143045   19522
     Sum        6961    6961   1843              1001259  1001259  136617

     Using Slab Decomposition



     bravais-lattice index     =            0
     lattice parameter (alat)  =      17.7898  a.u.
     unit-cell volume          =   10358.5703 (a.u.)^3
     number of atoms/cell      =           27
     number of atomic types    =            3
     number of electrons       =       162.00
     number of Kohn-Sham states=           81
     kinetic-energy cutoff     =      80.0000  Ry
     charge density cutoff     =     320.0000  Ry
     scf convergence threshold =      1.0E-07
     mixing beta               =       0.7000
     number of iterations used =            8  plain     mixing
     energy convergence thresh.=      1.0E-06
     force convergence thresh. =      1.0E-05
     press convergence thresh. =      5.0E-01
     Exchange-correlation= SLA-PZ-NOGX-NOGC
                           (   1   1   0   0   0   0   0)
     nstep                     =           50


     celldm(1)=  17.789818  celldm(2)=   0.000000  celldm(3)=   0.000000
     celldm(4)=   0.000000  celldm(5)=   0.000000  celldm(6)=   0.000000

     crystal axes: (cart. coord. in units of alat)
               a(1) = (   1.000000   0.000000   0.000000 )  
               a(2) = (   0.499999   0.866020   0.000000 )  
               a(3) = (   0.000000   0.000000   2.124503 )  

     reciprocal axes: (cart. coord. in units 2 pi/alat)
               b(1) = (  1.000000 -0.577353  0.000000 )  
               b(2) = (  0.000000  1.154708  0.000000 )  
               b(3) = (  0.000000  0.000000  0.470698 )  


     PseudoPot. # 1 for S  read from file:
     /cyclonas_users/asgouros/projects/PhononQE/qe_psextra/S.pz-hgh.UPF
     MD5 check sum: 38f9f902ee430b58f9df3cf2bf519617
     Pseudo is Norm-conserving, Zval =  6.0
     Generated in analytical, separable form
     Using radial grid of 1151 points,  3 beta functions with: 
                l(1) =   0
                l(2) =   0
                l(3) =   1

     PseudoPot. # 2 for Se read from file:
     /cyclonas_users/asgouros/projects/PhononQE/qe_psextra/Se.pz-hgh.UPF
     MD5 check sum: 42473bb8e8306ed0aaaa7d778fab00e5
     Pseudo is Norm-conserving, Zval =  6.0
     Generated in analytical, separable form
     Using radial grid of 1211 points,  6 beta functions with: 
                l(1) =   0
                l(2) =   0
                l(3) =   0
                l(4) =   1
                l(5) =   1
                l(6) =   2

     PseudoPot. # 3 for Mo read from file:
     /cyclonas_users/asgouros/projects/PhononQE/qe_psextra/Mo.pz-hgh.UPF
     MD5 check sum: ddacfae2313397baf1b67b06fa6affd0
     Pseudo is Norm-conserving, Zval =  6.0
     Generated in analytical, separable form
     Using radial grid of 1229 points,  6 beta functions with: 
                l(1) =   0
                l(2) =   0
                l(3) =   1
                l(4) =   1
                l(5) =   2
                l(6) =   2

     atomic species   valence    mass     pseudopotential
     S                 6.00    32.07000     S ( 1.00)
     Se                6.00    78.96000     Se( 1.00)
     Mo                6.00    95.94000     Mo( 1.00)

     No symmetry found



   Cartesian axes

     site n.     atom                  positions (alat units)
         1        Mo     tau(   1) = (  -0.0001004   0.0005097   0.0000000  )
         2        S      tau(   2) = (   0.1665663   0.0967339   0.1659744  )
         3        Se     tau(   3) = (   0.1665663   0.0967339  -0.1659744  )
         4        Mo     tau(   4) = (   0.3332329   0.0005097   0.0000000  )
         5        S      tau(   5) = (   0.4998996   0.0967339   0.1659744  )
         6        Se     tau(   6) = (   0.4998996   0.0967339  -0.1659744  )
         7        Mo     tau(   7) = (   0.6665663   0.0005097   0.0000000  )
         8        S      tau(   8) = (   0.8332330   0.0967339   0.1659744  )
         9        Se     tau(   9) = (   0.8332330   0.0967339  -0.1659744  )
        10        Mo     tau(  10) = (   0.1665661   0.2891830   0.0000000  )
        11        S      tau(  11) = (   0.3332328   0.3854072   0.1659744  )
        12        Se     tau(  12) = (   0.3332328   0.3854072  -0.1659744  )
        13        Mo     tau(  13) = (   0.4998994   0.2891830   0.0000000  )
        14        S      tau(  14) = (   0.6665661   0.3854072   0.1659744  )
        15        Se     tau(  15) = (   0.6665661   0.3854072  -0.1659744  )
        16        Mo     tau(  16) = (   0.8332327   0.2891830   0.0000000  )
        17        S      tau(  17) = (   0.9998995   0.3854072   0.1659744  )
        18        Se     tau(  18) = (   0.9998995   0.3854072  -0.1659744  )
        19        Mo     tau(  19) = (   0.3332326   0.5778564   0.0000000  )
        20        S      tau(  20) = (   0.4998993   0.6740805   0.1659744  )
        21        Se     tau(  21) = (   0.4998993   0.6740805  -0.1659744  )
        22        Mo     tau(  22) = (   0.6665659   0.5778564   0.0000000  )
        23        S      tau(  23) = (   0.8332326   0.6740805   0.1659744  )
        24        Se     tau(  24) = (   0.8332326   0.6740805  -0.1659744  )
        25        Mo     tau(  25) = (   0.9998992   0.5778564   0.0000000  )
        26        S      tau(  26) = (   1.1665660   0.6740805   0.1659744  )
        27        Se     tau(  27) = (   1.1665660   0.6740805  -0.1659744  )

     number of k points=    10
                       cart. coord. in units 2pi/alat
        k(    1) = (   0.0000000   0.0000000   0.0000000), wk =   0.1250000
        k(    2) = (   0.0000000   0.2886769   0.0000000), wk =   0.2500000
        k(    3) = (   0.0000000  -0.5773539   0.0000000), wk =   0.1250000
        k(    4) = (   0.2500000  -0.1443383   0.0000000), wk =   0.2500000
        k(    5) = (   0.2500000   0.1443386   0.0000000), wk =   0.2500000
        k(    6) = (   0.2500000  -0.7216922   0.0000000), wk =   0.2500000
        k(    7) = (   0.2500000  -0.4330152   0.0000000), wk =   0.2500000
        k(    8) = (  -0.5000000   0.2886766   0.0000000), wk =   0.1250000
        k(    9) = (  -0.5000000   0.5773535   0.0000000), wk =   0.2500000
        k(   10) = (  -0.5000000  -0.2886772   0.0000000), wk =   0.1250000

     Dense  grid:  1001259 G-vectors     FFT dimensions: ( 108, 108, 216)

     Estimated max dynamical RAM per process >     569.54 MB

     Estimated total dynamical RAM >       3.89 GB

     Initial potential from superposition of free atoms

     starting charge     143.9937, renormalised to     162.0000

     negative rho (up, down):  1.723E-05 0.000E+00
     Starting wfcs are  243 randomized atomic wfcs

     total cpu time spent up to now is       52.0 secs

     Self-consistent Calculation

     iteration #  1     ecut=    80.00 Ry     beta= 0.70
     Davidson diagonalization with overlap
     ethr =  1.00E-02,  avg # of iterations =  2.0

     total cpu time spent up to now is      101.1 secs

     total energy              =    -495.62687099 Ry
     estimated scf accuracy    <       9.04751792 Ry

     iteration #  2     ecut=    80.00 Ry     beta= 0.70
     Davidson diagonalization with overlap
     ethr =  5.58E-03,  avg # of iterations = 10.4

     total cpu time spent up to now is      210.6 secs

     total energy              =    -491.59308996 Ry
     estimated scf accuracy    <      83.51901253 Ry

     iteration #  3     ecut=    80.00 Ry     beta= 0.70
     Davidson diagonalization with overlap
     ethr =  5.58E-03,  avg # of iterations =  6.3

     total cpu time spent up to now is      288.8 secs

     total energy              =    -500.51424999 Ry
     estimated scf accuracy    <       4.53587350 Ry

     iteration #  4     ecut=    80.00 Ry     beta= 0.70
     Davidson diagonalization with overlap
     ethr =  2.80E-03,  avg # of iterations =  4.5

     total cpu time spent up to now is      347.9 secs

     total energy              =    -501.37188093 Ry
     estimated scf accuracy    <       0.12817256 Ry

     iteration #  5     ecut=    80.00 Ry     beta= 0.70
     Davidson diagonalization with overlap
     ethr =  7.91E-05,  avg # of iterations =  8.8

     total cpu time spent up to now is      453.4 secs

     total energy              =    -501.49620358 Ry
     estimated scf accuracy    <       0.25602914 Ry

     iteration #  6     ecut=    80.00 Ry     beta= 0.70
     Davidson diagonalization with overlap
     ethr =  7.91E-05,  avg # of iterations =  4.0

     total cpu time spent up to now is      513.4 secs

     total energy              =    -501.52321707 Ry
     estimated scf accuracy    <       0.05181392 Ry

     iteration #  7     ecut=    80.00 Ry     beta= 0.70
     Davidson diagonalization with overlap
     ethr =  3.20E-05,  avg # of iterations =  4.8

     total cpu time spent up to now is      573.5 secs

     total energy              =    -501.52767230 Ry
     estimated scf accuracy    <       0.04264397 Ry

     iteration #  8     ecut=    80.00 Ry     beta= 0.70
     Davidson diagonalization with overlap
     ethr =  2.63E-05,  avg # of iterations =  2.3

     total cpu time spent up to now is      620.5 secs

     total energy              =    -501.52727690 Ry
     estimated scf accuracy    <       0.02350583 Ry

     iteration #  9     ecut=    80.00 Ry     beta= 0.70
     Davidson diagonalization with overlap
     ethr =  1.45E-05,  avg # of iterations =  3.3

     negative rho (up, down):  2.054E-06 0.000E+00

     total cpu time spent up to now is      669.2 secs

     total energy              =    -501.52663779 Ry
     estimated scf accuracy    <       0.01177383 Ry

     iteration # 10     ecut=    80.00 Ry     beta= 0.70
     Davidson diagonalization with overlap
     ethr =  7.27E-06,  avg # of iterations =  4.9

     total cpu time spent up to now is      732.0 secs

     total energy              =    -501.52817791 Ry
     estimated scf accuracy    <       0.00650454 Ry

     iteration # 11     ecut=    80.00 Ry     beta= 0.70
     Davidson diagonalization with overlap
     ethr =  4.02E-06,  avg # of iterations =  2.0

     total cpu time spent up to now is      777.5 secs

     total energy              =    -501.52742899 Ry
     estimated scf accuracy    <       0.00279410 Ry

     iteration # 12     ecut=    80.00 Ry     beta= 0.70
     Davidson diagonalization with overlap
     ethr =  1.72E-06,  avg # of iterations =  6.2

     total cpu time spent up to now is      847.9 secs

     total energy              =    -501.52836066 Ry
     estimated scf accuracy    <       0.00270068 Ry

     iteration # 13     ecut=    80.00 Ry     beta= 0.70
     Davidson diagonalization with overlap
     ethr =  1.67E-06,  avg # of iterations =  2.0

     total cpu time spent up to now is      893.0 secs

     total energy              =    -501.52829394 Ry
     estimated scf accuracy    <       0.00099073 Ry

     iteration # 14     ecut=    80.00 Ry     beta= 0.70
     Davidson diagonalization with overlap
     ethr =  6.12E-07,  avg # of iterations =  5.0

     total cpu time spent up to now is      953.4 secs

     total energy              =    -501.52848678 Ry
     estimated scf accuracy    <       0.00004835 Ry

     iteration # 15     ecut=    80.00 Ry     beta= 0.70
     Davidson diagonalization with overlap
     ethr =  2.98E-08,  avg # of iterations =  6.1

     total cpu time spent up to now is     1034.5 secs

     total energy              =    -501.52851527 Ry
     estimated scf accuracy    <       0.00008497 Ry

     iteration # 16     ecut=    80.00 Ry     beta= 0.70
     Davidson diagonalization with overlap
     ethr =  2.98E-08,  avg # of iterations =  1.6

     total cpu time spent up to now is     1078.4 secs

     total energy              =    -501.52850826 Ry
     estimated scf accuracy    <       0.00005989 Ry

     iteration # 17     ecut=    80.00 Ry     beta= 0.70
     Davidson diagonalization with overlap
     ethr =  2.98E-08,  avg # of iterations =  2.0

     total cpu time spent up to now is     1123.6 secs

     total energy              =    -501.52850671 Ry
     estimated scf accuracy    <       0.00002371 Ry

     iteration # 18     ecut=    80.00 Ry     beta= 0.70
     Davidson diagonalization with overlap
     ethr =  1.46E-08,  avg # of iterations =  5.4

     total cpu time spent up to now is     1180.6 secs

     total energy              =    -501.52851103 Ry
     estimated scf accuracy    <       0.00000374 Ry

     iteration # 19     ecut=    80.00 Ry     beta= 0.70
     Davidson diagonalization with overlap
     ethr =  2.31E-09,  avg # of iterations =  5.2

     total cpu time spent up to now is     1237.6 secs

     total energy              =    -501.52851143 Ry
     estimated scf accuracy    <       0.00000437 Ry

     iteration # 20     ecut=    80.00 Ry     beta= 0.70
     Davidson diagonalization with overlap
     ethr =  2.31E-09,  avg # of iterations =  5.0

     total cpu time spent up to now is     1294.0 secs

     total energy              =    -501.52851081 Ry
     estimated scf accuracy    <       0.00000645 Ry

     iteration # 21     ecut=    80.00 Ry     beta= 0.70
     Davidson diagonalization with overlap
     ethr =  2.31E-09,  avg # of iterations =  2.3

     total cpu time spent up to now is     1343.5 secs

     total energy              =    -501.52851086 Ry
     estimated scf accuracy    <       0.00000177 Ry

     iteration # 22     ecut=    80.00 Ry     beta= 0.70
     Davidson diagonalization with overlap
     ethr =  1.09E-09,  avg # of iterations =  5.3

     total cpu time spent up to now is     1405.7 secs

     total energy              =    -501.52851121 Ry
     estimated scf accuracy    <       0.00000013 Ry

     iteration # 23     ecut=    80.00 Ry     beta= 0.70
     Davidson diagonalization with overlap
     ethr =  7.89E-11,  avg # of iterations =  6.5

     total cpu time spent up to now is     1492.9 secs

     total energy              =    -501.52851130 Ry
     estimated scf accuracy    <       0.00000020 Ry

     iteration # 24     ecut=    80.00 Ry     beta= 0.70
     Davidson diagonalization with overlap
     ethr =  7.89E-11,  avg # of iterations =  3.4

     total cpu time spent up to now is     1546.0 secs

     total energy              =    -501.52851130 Ry
     estimated scf accuracy    <       0.00000013 Ry

     iteration # 25     ecut=    80.00 Ry     beta= 0.70
     Davidson diagonalization with overlap
     ethr =  7.80E-11,  avg # of iterations =  2.0

     total cpu time spent up to now is     1591.0 secs

     End of self-consistent calculation

          k = 0.0000 0.0000 0.0000 (125109 PWs)   bands (ev):

   -16.1504 -14.7193 -14.7193 -14.7193 -14.7193 -14.7192 -14.7192 -14.5083
   -13.7829 -13.7829 -13.7009 -13.7009 -13.7009 -13.7009 -13.7009 -13.7008
   -13.0954 -13.0954  -7.2359  -7.0688  -7.0688  -6.8518  -6.8518  -6.8518
    -6.8518  -6.8517  -6.8517  -6.2290  -6.2290  -5.7167  -5.7167  -5.7167
    -5.7167  -5.7167  -5.7167  -5.6471  -5.6471  -5.3033  -5.3033  -5.3033
    -5.3033  -5.3033  -5.3033  -4.8778  -4.8778  -4.3663  -4.3663  -4.1117
    -4.1117  -4.1117  -4.1117  -4.1116  -4.1116  -3.8817  -3.8816  -3.3875
    -3.3875  -3.1239  -2.8608  -2.8608  -2.8608  -2.8608  -2.8608  -2.8608
    -2.6112  -2.6112  -2.4004  -2.4004  -2.4003  -2.4003  -2.4003  -2.4003
    -2.3710  -2.3710  -2.3710  -2.3710  -2.3710  -2.3709  -1.4680  -1.2363
    -1.2363

          k = 0.0000 0.2887 0.0000 (125212 PWs)   bands (ev):

   -16.0413 -15.2575 -14.9281 -14.9281 -14.4469 -14.4214 -14.4214 -14.2651
   -14.0053 -13.8718 -13.8717 -13.8170 -13.8170 -13.5251 -13.5251 -13.4386
   -13.1601 -13.1601  -7.3487  -7.1101  -7.0527  -7.0527  -6.9939  -6.9939
    -6.6105  -6.6105  -6.5552  -6.5474  -6.5474  -6.2141  -6.0205  -6.0205
    -5.4382  -5.3916  -5.3916  -5.3055  -5.3055  -5.2918  -5.2918  -5.2254
    -5.2086  -5.2086  -4.9684  -4.6133  -4.6133  -4.4699  -4.4699  -4.4478
    -4.4478  -4.3762  -4.2571  -4.2571  -4.1254  -3.7586  -3.7056  -3.5759
    -3.2080  -3.2080  -3.0767  -2.9419  -2.9419  -2.9128  -2.8680  -2.8680
    -2.8488  -2.8488  -2.7925  -2.5122  -2.4693  -2.4693  -2.3158  -2.1718
    -2.1434  -2.1434  -2.0978  -2.0320  -1.9399  -1.9399  -1.4963  -1.4281
    -1.4281

          k = 0.0000-0.5774 0.0000 (125190 PWs)   bands (ev):

   -15.7282 -15.7282 -15.0026 -15.0026 -14.2706 -14.2706 -14.1093 -14.1093
   -14.1093 -14.1092 -14.0828 -13.8573 -13.8573 -13.3290 -13.3251 -13.3251
   -13.3250 -13.3250  -7.5720  -7.0699  -7.0699  -7.0699  -7.0698  -6.7914
    -6.7914  -6.5028  -6.5028  -6.4009  -6.3930  -6.3929  -6.3929  -6.3929
    -5.5284  -5.2522  -5.2522  -5.2522  -5.2522  -5.1995  -5.1995  -5.0539
    -5.0539  -4.6945  -4.6945  -4.6224  -4.6224  -4.6224  -4.6224  -4.5573
    -4.5573  -4.4675  -4.2596  -4.2596  -3.6781  -3.6781  -3.6781  -3.6781
    -3.4158  -3.4157  -3.2169  -3.2168  -3.2010  -3.2010  -3.1447  -2.9409
    -2.9409  -2.9409  -2.9408  -2.2225  -2.2225  -2.1594  -2.1594  -2.0685
    -2.0685  -1.9778  -1.9042  -1.7015  -1.7015  -1.7015  -1.7015  -1.6758
    -1.6757

          k = 0.2500-0.1443 0.0000 (125212 PWs)   bands (ev):

   -16.0413 -15.2575 -14.9281 -14.9281 -14.4469 -14.4215 -14.4214 -14.2652
   -14.0053 -13.8718 -13.8717 -13.8170 -13.8170 -13.5251 -13.5251 -13.4386
   -13.1601 -13.1601  -7.3487  -7.1101  -7.0527  -7.0527  -6.9939  -6.9939
    -6.6105  -6.6105  -6.5552  -6.5474  -6.5474  -6.2141  -6.0205  -6.0205
    -5.4382  -5.3916  -5.3916  -5.3055  -5.3055  -5.2918  -5.2918  -5.2255
    -5.2086  -5.2086  -4.9684  -4.6133  -4.6133  -4.4699  -4.4699  -4.4478
    -4.4478  -4.3761  -4.2572  -4.2571  -4.1254  -3.7585  -3.7055  -3.5759
    -3.2080  -3.2080  -3.0767  -2.9419  -2.9418  -2.9127  -2.8680  -2.8680
    -2.8489  -2.8488  -2.7924  -2.5122  -2.4693  -2.4693  -2.3158  -2.1718
    -2.1434  -2.1434  -2.0978  -2.0319  -1.9399  -1.9398  -1.4963  -1.4281
    -1.4281

          k = 0.2500 0.1443 0.0000 (125212 PWs)   bands (ev):

   -16.0413 -15.2575 -14.9281 -14.9281 -14.4469 -14.4215 -14.4214 -14.2652
   -14.0053 -13.8718 -13.8717 -13.8170 -13.8170 -13.5251 -13.5251 -13.4386
   -13.1601 -13.1601  -7.3487  -7.1101  -7.0527  -7.0527  -6.9939  -6.9939
    -6.6105  -6.6105  -6.5552  -6.5474  -6.5474  -6.2141  -6.0205  -6.0205
    -5.4382  -5.3916  -5.3916  -5.3055  -5.3055  -5.2918  -5.2918  -5.2255
    -5.2086  -5.2086  -4.9684  -4.6133  -4.6133  -4.4699  -4.4699  -4.4478
    -4.4478  -4.3762  -4.2572  -4.2571  -4.1254  -3.7585  -3.7055  -3.5759
    -3.2080  -3.2080  -3.0767  -2.9419  -2.9418  -2.9127  -2.8680  -2.8680
    -2.8489  -2.8488  -2.7924  -2.5122  -2.4693  -2.4693  -2.3158  -2.1718
    -2.1434  -2.1434  -2.0978  -2.0319  -1.9399  -1.9398  -1.4963  -1.4281
    -1.4281

          k = 0.2500-0.7217 0.0000 (125191 PWs)   bands (ev):

   -15.8301 -15.4370 -15.4370 -14.5134 -14.5133 -14.3279 -14.1181 -14.1059
   -14.1058 -14.0916 -14.0916 -13.9496 -13.5710 -13.5710 -13.3278 -13.3278
   -13.3234 -13.2235  -7.4201  -7.4200  -7.2127  -6.8843  -6.8628  -6.7568
    -6.7568  -6.5806  -6.5755  -6.5755  -6.3997  -6.3997  -6.3881  -5.8306
    -5.8305  -5.4656  -5.4656  -5.4120  -5.0826  -5.0826  -5.0424  -5.0424
    -4.9219  -4.7177  -4.7039  -4.7039  -4.6142  -4.6142  -4.5490  -4.5224
    -4.5106  -4.5106  -4.3480  -4.0290  -3.8400  -3.8400  -3.6435  -3.5791
    -3.5791  -3.5343  -3.2173  -3.1721  -3.1721  -3.1421  -3.0925  -3.0924
    -2.8442  -2.6758  -2.6758  -2.5144  -2.5144  -2.1250  -2.1249  -2.0977
    -1.9531  -1.9531  -1.9034  -1.9034  -1.7375  -1.6861  -1.6861  -1.5990
    -1.5227

          k = 0.2500-0.4330 0.0000 (125191 PWs)   bands (ev):

   -15.8301 -15.4370 -15.4370 -14.5134 -14.5133 -14.3279 -14.1181 -14.1059
   -14.1059 -14.0916 -14.0916 -13.9496 -13.5710 -13.5710 -13.3278 -13.3278
   -13.3234 -13.2235  -7.4201  -7.4200  -7.2127  -6.8843  -6.8628  -6.7568
    -6.7568  -6.5806  -6.5755  -6.5755  -6.3997  -6.3997  -6.3881  -5.8306
    -5.8305  -5.4656  -5.4656  -5.4120  -5.0826  -5.0826  -5.0424  -5.0424
    -4.9219  -4.7177  -4.7039  -4.7039  -4.6142  -4.6142  -4.5490  -4.5224
    -4.5106  -4.5106  -4.3480  -4.0290  -3.8400  -3.8400  -3.6435  -3.5791
    -3.5791  -3.5343  -3.2172  -3.1721  -3.1721  -3.1421  -3.0925  -3.0924
    -2.8442  -2.6758  -2.6758  -2.5144  -2.5144  -2.1250  -2.1249  -2.0977
    -1.9531  -1.9531  -1.9034  -1.9034  -1.7375  -1.6861  -1.6861  -1.5990
    -1.5227

          k =-0.5000 0.2887 0.0000 (125190 PWs)   bands (ev):

   -15.7283 -15.7282 -15.0026 -15.0026 -14.2706 -14.2706 -14.1093 -14.1093
   -14.1092 -14.1092 -14.0828 -13.8573 -13.8573 -13.3290 -13.3251 -13.3251
   -13.3250 -13.3250  -7.5720  -7.0699  -7.0699  -7.0699  -7.0698  -6.7914
    -6.7914  -6.5028  -6.5028  -6.4009  -6.3930  -6.3929  -6.3929  -6.3929
    -5.5284  -5.2523  -5.2522  -5.2522  -5.2522  -5.1995  -5.1995  -5.0539
    -5.0539  -4.6946  -4.6945  -4.6224  -4.6224  -4.6224  -4.6224  -4.5573
    -4.5573  -4.4674  -4.2596  -4.2596  -3.6781  -3.6781  -3.6781  -3.6781
    -3.4158  -3.4157  -3.2168  -3.2168  -3.2010  -3.2010  -3.1447  -2.9409
    -2.9409  -2.9409  -2.9409  -2.2225  -2.2225  -2.1594  -2.1594  -2.0685
    -2.0685  -1.9778  -1.9041  -1.7015  -1.7015  -1.7015  -1.7014  -1.6758
    -1.6757

          k =-0.5000 0.5774 0.0000 (125191 PWs)   bands (ev):

   -15.8301 -15.4370 -15.4370 -14.5133 -14.5133 -14.3279 -14.1181 -14.1059
   -14.1059 -14.0916 -14.0916 -13.9495 -13.5710 -13.5710 -13.3279 -13.3278
   -13.3235 -13.2235  -7.4201  -7.4200  -7.2127  -6.8843  -6.8628  -6.7568
    -6.7568  -6.5806  -6.5755  -6.5755  -6.3997  -6.3997  -6.3881  -5.8306
    -5.8305  -5.4656  -5.4656  -5.4120  -5.0825  -5.0825  -5.0424  -5.0424
    -4.9219  -4.7177  -4.7039  -4.7039  -4.6142  -4.6142  -4.5491  -4.5224
    -4.5106  -4.5106  -4.3480  -4.0290  -3.8400  -3.8400  -3.6436  -3.5791
    -3.5791  -3.5343  -3.2172  -3.1721  -3.1721  -3.1421  -3.0925  -3.0925
    -2.8442  -2.6758  -2.6758  -2.5144  -2.5144  -2.1250  -2.1249  -2.0977
    -1.9531  -1.9531  -1.9034  -1.9034  -1.7374  -1.6861  -1.6860  -1.5991
    -1.5227

          k =-0.5000-0.2887 0.0000 (125190 PWs)   bands (ev):

   -15.7282 -15.7282 -15.0026 -15.0026 -14.2706 -14.2706 -14.1093 -14.1093
   -14.1093 -14.1092 -14.0828 -13.8573 -13.8573 -13.3290 -13.3251 -13.3251
   -13.3250 -13.3250  -7.5720  -7.0699  -7.0699  -7.0698  -7.0698  -6.7914
    -6.7914  -6.5028  -6.5028  -6.4009  -6.3930  -6.3929  -6.3929  -6.3929
    -5.5284  -5.2522  -5.2522  -5.2522  -5.2522  -5.1995  -5.1995  -5.0539
    -5.0539  -4.6946  -4.6945  -4.6224  -4.6224  -4.6224  -4.6224  -4.5573
    -4.5573  -4.4674  -4.2596  -4.2596  -3.6781  -3.6781  -3.6781  -3.6781
    -3.4157  -3.4157  -3.2168  -3.2168  -3.2010  -3.2010  -3.1447  -2.9409
    -2.9409  -2.9409  -2.9408  -2.2225  -2.2225  -2.1594  -2.1594  -2.0685
    -2.0685  -1.9778  -1.9041  -1.7015  -1.7015  -1.7015  -1.7015  -1.6758
    -1.6757

     highest occupied level (ev):    -1.2363

!    total energy              =    -501.52851124 Ry
     estimated scf accuracy    <       0.00000007 Ry

     The total energy is the sum of the following terms:
     one-electron contribution =   -4223.35363856 Ry
     hartree contribution      =    2149.50664834 Ry
     xc contribution           =    -116.79892109 Ry
     ewald contribution        =    1689.11740006 Ry

     convergence has been achieved in  25 iterations

     Forces acting on atoms (cartesian axes, Ry/au):

     atom    1 type  3   force =     0.00000356   -0.00000550    0.10727987
     atom    2 type  1   force =     0.00001406   -0.00000854    0.00433250
     atom    3 type  2   force =     0.00001351   -0.00001055   -0.11161188
     atom    4 type  3   force =    -0.00000085   -0.00000130    0.10727556
     atom    5 type  1   force =    -0.00001291   -0.00001004    0.00433158
     atom    6 type  2   force =    -0.00001201   -0.00001224   -0.11161196
     atom    7 type  3   force =    -0.00000051   -0.00000696    0.10728171
     atom    8 type  1   force =    -0.00000198   -0.00001470    0.00434564
     atom    9 type  2   force =    -0.00000287   -0.00001473   -0.11162770
     atom   10 type  3   force =     0.00000516   -0.00000091    0.10728176
     atom   11 type  1   force =    -0.00000055    0.00000618    0.00433876
     atom   12 type  2   force =    -0.00000046    0.00000558   -0.11161797
     atom   13 type  3   force =    -0.00000466   -0.00000133    0.10728043
     atom   14 type  1   force =    -0.00001079    0.00000658    0.00434870
     atom   15 type  2   force =    -0.00000961    0.00000611   -0.11163101
     atom   16 type  3   force =    -0.00000137   -0.00000050    0.10728068
     atom   17 type  1   force =     0.00001098    0.00000404    0.00435109
     atom   18 type  2   force =     0.00000842    0.00000485   -0.11163142
     atom   19 type  3   force =     0.00000096    0.00000272    0.10728350
     atom   20 type  1   force =    -0.00000515   -0.00000125    0.00433512
     atom   21 type  2   force =    -0.00000440   -0.00000128   -0.11161588
     atom   22 type  3   force =    -0.00000216    0.00000689    0.10727746
     atom   23 type  1   force =    -0.00000231    0.00001883    0.00433262
     atom   24 type  2   force =    -0.00000183    0.00001805   -0.11161459
     atom   25 type  3   force =     0.00000457    0.00000635    0.10728418
     atom   26 type  1   force =     0.00000765    0.00000151    0.00433821
     atom   27 type  2   force =     0.00000555    0.00000215   -0.11161695

     Total force =     0.464632     Total SCF correction =     0.000787


     Computing stress (Cartesian axis) and pressure

          total   stress  (Ry/bohr**3)                   (kbar)     P=       37.27
   0.00023267   0.00000000  -0.00000000           34.23        0.00       -0.00
   0.00000000   0.00023270   0.00000000            0.00       34.23        0.00
  -0.00000000   0.00000000   0.00029469           -0.00        0.00       43.35


     BFGS Geometry Optimization
     Energy error            =      0.0E+00 Ry
     Gradient error          =      1.1E-01 Ry/Bohr
     Cell gradient error     =      3.4E+01 kbar

     number of scf cycles    =   1
     number of bfgs steps    =   0

     enthalpy           new  =    -501.5285112352 Ry

     new trust radius        =       0.1184153332 bohr
     new conv_thr            =       0.0000001000 Ry

     new unit-cell volume =  10479.43458 a.u.^3 (  1552.89199 Ang^3 )
     density =      1.99186 g/cm^3

CELL_PARAMETERS (angstrom)
   9.468725683   0.000000201   0.000000000
   4.734358060   8.200110871   0.000000000
   0.000000000   0.000000000  20.000000000

ATOMIC_POSITIONS (angstrom)
Mo              -0.0009488873        0.0048232752        0.0567700598
S                1.5771782294        0.9159423814        1.5647697362
Se               1.5771779355        0.9159413145       -1.6215395390
Mo               3.1552906592        0.0048255759        0.0567677816
S                4.7334057674        0.9159416527        1.5647692536
Se               4.7334062501        0.9159404805       -1.6215395828
Mo               6.3115327372        0.0048226316        0.0567710342
S                7.8896534810        0.9159392374        1.5647766905
Se               7.8896530056        0.9159392225       -1.6215479113
Mo               1.5771713192        2.7381960054        0.0567710607
S                3.1552898057        3.6493205061        1.5647730494
Se               3.1552898567        3.6493201888       -1.6215427654
Mo               4.7334079851        2.7381958475        0.0567703604
S                6.3115262493        3.6493207866        1.5647783106
Se               6.3115268769        3.6493205396       -1.6215496629
Mo               7.8896516322        2.7381963583        0.0567704929
S                9.4677797334        3.6493195040        1.5647795762
Se               9.4677783709        3.6493199335       -1.6215498805
Mo               3.1552884386        5.4715682292        0.0567719826
S                4.7334067081        6.3826868443        1.5647711225
Se               4.7334071126        6.3826868304       -1.6215416568
Mo               6.3115286689        5.4715705142        0.0567687867
S                7.8896501180        6.3826976012        1.5647698008
Se               7.8896503741        6.3826971817       -1.6215409774
Mo               9.4677741476        5.4715702970        0.0567723414
S               11.0458973122        6.3826884460        1.5647727619
Se              11.0458961948        6.3826887895       -1.6215422259



     Writing config-only to output data dir /scratch/asgouros/train_MoSSe_defT_3x3//ref/ref.save/ :
     XML data file
     NEW-OLD atomic charge density approx. for the potential

     negative rho (up, down):  1.740E-04 0.000E+00

     total cpu time spent up to now is     1746.3 secs

     Self-consistent Calculation

     iteration #  1     ecut=    80.00 Ry     beta= 0.70
     Davidson diagonalization with overlap
     ethr =  1.00E-06,  avg # of iterations = 16.8

     negative rho (up, down):  1.409E-05 0.000E+00

     total cpu time spent up to now is     1971.3 secs

     total energy              =    -501.48725124 Ry
     estimated scf accuracy    <       0.26169928 Ry

     iteration #  2     ecut=    80.00 Ry     beta= 0.70
     Davidson diagonalization with overlap
     ethr =  1.62E-04,  avg # of iterations =  7.0

     negative rho (up, down):  1.059E-05 0.000E+00

     total cpu time spent up to now is     2066.2 secs

     total energy              =    -501.28463334 Ry
     estimated scf accuracy    <       3.33250186 Ry

     iteration #  3     ecut=    80.00 Ry     beta= 0.70
     Davidson diagonalization with overlap
     ethr =  1.62E-04,  avg # of iterations =  5.7

     negative rho (up, down):  8.471E-06 0.000E+00

     total cpu time spent up to now is     2144.3 secs

     total energy              =    -501.62749603 Ry
     estimated scf accuracy    <       0.14910889 Ry

     iteration #  4     ecut=    80.00 Ry     beta= 0.70
     Davidson diagonalization with overlap
     ethr =  9.20E-05,  avg # of iterations =  5.1

     negative rho (up, down):  3.492E-06 0.000E+00

     total cpu time spent up to now is     2204.3 secs

     total energy              =    -501.65621499 Ry
     estimated scf accuracy    <       0.00437351 Ry

     iteration #  5     ecut=    80.00 Ry     beta= 0.70
     Davidson diagonalization with overlap
     ethr =  2.70E-06,  avg # of iterations =  8.9

     negative rho (up, down):  1.563E-06 0.000E+00

     total cpu time spent up to now is     2298.4 secs

     total energy              =    -501.66251611 Ry
     estimated scf accuracy    <       0.00720168 Ry

     iteration #  6     ecut=    80.00 Ry     beta= 0.70
     Davidson diagonalization with overlap
     ethr =  2.70E-06,  avg # of iterations =  2.0

     negative rho (up, down):  1.297E-07 0.000E+00

     total cpu time spent up to now is     2335.2 secs

     total energy              =    -501.66183402 Ry
     estimated scf accuracy    <       0.00354349 Ry

     iteration #  7     ecut=    80.00 Ry     beta= 0.70
     Davidson diagonalization with overlap
     ethr =  2.19E-06,  avg # of iterations =  4.3

     total cpu time spent up to now is     2383.1 secs

     total energy              =    -501.66234814 Ry
     estimated scf accuracy    <       0.00055489 Ry

     iteration #  8     ecut=    80.00 Ry     beta= 0.70
     Davidson diagonalization with overlap
     ethr =  3.43E-07,  avg # of iterations =  6.0

     total cpu time spent up to now is     2462.0 secs

     total energy              =    -501.66251672 Ry
     estimated scf accuracy    <       0.00097561 Ry

     iteration #  9     ecut=    80.00 Ry     beta= 0.70
     Davidson diagonalization with overlap
     ethr =  3.43E-07,  avg # of iterations =  1.5

     total cpu time spent up to now is     2506.3 secs

     total energy              =    -501.66237799 Ry
     estimated scf accuracy    <       0.00050107 Ry

     iteration # 10     ecut=    80.00 Ry     beta= 0.70
     Davidson diagonalization with overlap
     ethr =  3.09E-07,  avg # of iterations =  4.9

     total cpu time spent up to now is     2568.5 secs

     total energy              =    -501.66249753 Ry
     estimated scf accuracy    <       0.00006717 Ry

     iteration # 11     ecut=    80.00 Ry     beta= 0.70
     Davidson diagonalization with overlap
     ethr =  4.15E-08,  avg # of iterations =  5.0

     total cpu time spent up to now is     2626.3 secs

     total energy              =    -501.66249790 Ry
     estimated scf accuracy    <       0.00004135 Ry

     iteration # 12     ecut=    80.00 Ry     beta= 0.70
     Davidson diagonalization with overlap
     ethr =  2.55E-08,  avg # of iterations =  3.7

     total cpu time spent up to now is     2679.8 secs

     total energy              =    -501.66250203 Ry
     estimated scf accuracy    <       0.00000310 Ry

     iteration # 13     ecut=    80.00 Ry     beta= 0.70
     Davidson diagonalization with overlap
     ethr =  1.92E-09,  avg # of iterations =  7.7

     total cpu time spent up to now is     2788.6 secs

     total energy              =    -501.66250337 Ry
     estimated scf accuracy    <       0.00002262 Ry

     iteration # 14     ecut=    80.00 Ry     beta= 0.70
     Davidson diagonalization with overlap
     ethr =  1.92E-09,  avg # of iterations =  5.7

     total cpu time spent up to now is     2858.9 secs

     total energy              =    -501.66250493 Ry
     estimated scf accuracy    <       0.00000270 Ry

     iteration # 15     ecut=    80.00 Ry     beta= 0.70
     Davidson diagonalization with overlap
     ethr =  1.67E-09,  avg # of iterations =  2.9

     total cpu time spent up to now is     2909.0 secs

     total energy              =    -501.66250490 Ry
     estimated scf accuracy    <       0.00000103 Ry

     iteration # 16     ecut=    80.00 Ry     beta= 0.70
     Davidson diagonalization with overlap
     ethr =  6.37E-10,  avg # of iterations =  6.0

     total cpu time spent up to now is     2993.0 secs

     total energy              =    -501.66250548 Ry
     estimated scf accuracy    <       0.00000249 Ry

     iteration # 17     ecut=    80.00 Ry     beta= 0.70
     Davidson diagonalization with overlap
     ethr =  6.37E-10,  avg # of iterations =  1.0

     total cpu time spent up to now is     3036.1 secs

     total energy              =    -501.66250510 Ry
     estimated scf accuracy    <       0.00000190 Ry

     iteration # 18     ecut=    80.00 Ry     beta= 0.70
     Davidson diagonalization with overlap
     ethr =  6.37E-10,  avg # of iterations =  3.2

     total cpu time spent up to now is     3091.4 secs

     total energy              =    -501.66250521 Ry
     estimated scf accuracy    <       0.00000022 Ry

     iteration # 19     ecut=    80.00 Ry     beta= 0.70
     Davidson diagonalization with overlap
     ethr =  1.35E-10,  avg # of iterations =  5.6

     total cpu time spent up to now is     3169.8 secs

     total energy              =    -501.66250533 Ry
     estimated scf accuracy    <       0.00000020 Ry

     iteration # 20     ecut=    80.00 Ry     beta= 0.70
     Davidson diagonalization with overlap
     ethr =  1.23E-10,  avg # of iterations =  1.0

     total cpu time spent up to now is     3213.3 secs

     total energy              =    -501.66250531 Ry
     estimated scf accuracy    <       0.00000018 Ry

     iteration # 21     ecut=    80.00 Ry     beta= 0.70
     Davidson diagonalization with overlap
     ethr =  1.14E-10,  avg # of iterations =  1.0

     total cpu time spent up to now is     3256.4 secs

     total energy              =    -501.66250530 Ry
     estimated scf accuracy    <       0.00000014 Ry

     iteration # 22     ecut=    80.00 Ry     beta= 0.70
     Davidson diagonalization with overlap
     ethr =  8.74E-11,  avg # of iterations =  1.0

     total cpu time spent up to now is     3299.1 secs

     End of self-consistent calculation

          k = 0.0000 0.0000 0.0000 (125109 PWs)   bands (ev):

   -15.9556 -14.5264 -14.5264 -14.5263 -14.5263 -14.5263 -14.5263 -14.5134
   -13.7268 -13.7268 -13.7268 -13.7268 -13.7267 -13.7267 -13.5546 -13.5546
   -13.1754 -13.1754  -7.0860  -6.8498  -6.8498  -6.6517  -6.6517  -6.6517
    -6.6516  -6.6516  -6.6516  -6.1269  -6.1269  -5.6680  -5.6680  -5.6680
    -5.6680  -5.6680  -5.6680  -5.5793  -5.5793  -5.2297  -5.2297  -5.2297
    -5.2297  -5.2297  -5.2297  -4.8278  -4.8278  -4.3692  -4.3691  -4.0366
    -4.0365  -4.0365  -4.0365  -4.0365  -4.0365  -3.8242  -3.8241  -3.4190
    -3.4190  -3.3218  -3.0147  -3.0147  -3.0147  -3.0147  -3.0147  -3.0147
    -2.4342  -2.4342  -2.2667  -2.2667  -2.2667  -2.2667  -2.2666  -2.2666
    -2.2629  -2.2629  -2.2629  -2.2629  -2.2629  -2.2629  -1.3945  -1.2492
    -1.2492

          k =-0.0000 0.2870 0.0000 (125212 PWs)   bands (ev):

   -15.8481 -15.0700 -14.7387 -14.7387 -14.4522 -14.2209 -14.2209 -14.0573
   -14.0180 -13.8369 -13.8369 -13.6481 -13.6481 -13.5632 -13.5632 -13.4847
   -13.2331 -13.2331  -7.1579  -6.9613  -6.8511  -6.8511  -6.7399  -6.7399
    -6.5059  -6.5059  -6.4127  -6.4127  -6.3788  -6.2052  -5.9833  -5.9833
    -5.3569  -5.3569  -5.3228  -5.2214  -5.2214  -5.2130  -5.1943  -5.1943
    -5.1090  -5.1090  -4.8081  -4.5690  -4.5690  -4.4634  -4.4634  -4.3694
    -4.3694  -4.2775  -4.1944  -4.1944  -4.1041  -3.7268  -3.6999  -3.5405
    -3.2534  -3.2534  -3.1747  -2.9882  -2.9882  -2.8281  -2.8281  -2.7564
    -2.7564  -2.7150  -2.6903  -2.6602  -2.6602  -2.5882  -2.3545  -2.1113
    -1.9819  -1.9819  -1.9817  -1.9457  -1.8487  -1.8487  -1.4155  -1.4155
    -1.4047

          k = 0.0000-0.5740 0.0000 (125190 PWs)   bands (ev):

   -15.5388 -15.5387 -14.8142 -14.8142 -14.2776 -14.2775 -13.8970 -13.8970
   -13.8970 -13.8970 -13.8755 -13.8755 -13.8647 -13.3868 -13.3810 -13.3810
   -13.3810 -13.3810  -7.3935  -6.8578  -6.8578  -6.8578  -6.8578  -6.6404
    -6.6403  -6.4013  -6.3406  -6.3406  -6.3406  -6.3406  -6.3048  -6.3048
    -5.3895  -5.2161  -5.2161  -5.1610  -5.1610  -5.1610  -5.1610  -4.9120
    -4.9120  -4.6871  -4.6871  -4.5690  -4.5689  -4.5689  -4.5689  -4.4680
    -4.4680  -4.3623  -4.0893  -4.0893  -3.6324  -3.6324  -3.6324  -3.6324
    -3.5395  -3.5395  -3.2259  -3.0940  -3.0940  -3.0110  -3.0110  -3.0110
    -3.0110  -2.8570  -2.8569  -2.4287  -2.4287  -2.4042  -2.4042  -1.9404
    -1.8520  -1.8520  -1.8356  -1.6492  -1.6492  -1.6492  -1.6492  -1.5684
    -1.5684

          k = 0.2486-0.1435 0.0000 (125212 PWs)   bands (ev):

   -15.8481 -15.0700 -14.7387 -14.7387 -14.4522 -14.2209 -14.2209 -14.0573
   -14.0180 -13.8369 -13.8369 -13.6481 -13.6481 -13.5632 -13.5632 -13.4847
   -13.2331 -13.2331  -7.1579  -6.9613  -6.8511  -6.8511  -6.7399  -6.7399
    -6.5059  -6.5059  -6.4127  -6.4127  -6.3788  -6.2052  -5.9833  -5.9833
    -5.3569  -5.3569  -5.3228  -5.2214  -5.2213  -5.2130  -5.1943  -5.1943
    -5.1090  -5.1090  -4.8082  -4.5690  -4.5690  -4.4634  -4.4634  -4.3695
    -4.3694  -4.2774  -4.1944  -4.1944  -4.1042  -3.7268  -3.6998  -3.5405
    -3.2534  -3.2533  -3.1748  -2.9882  -2.9882  -2.8281  -2.8281  -2.7564
    -2.7564  -2.7150  -2.6902  -2.6602  -2.6602  -2.5882  -2.3545  -2.1113
    -1.9819  -1.9819  -1.9817  -1.9456  -1.8487  -1.8487  -1.4154  -1.4154
    -1.4047

          k = 0.2486 0.1435 0.0000 (125212 PWs)   bands (ev):

   -15.8481 -15.0700 -14.7387 -14.7387 -14.4522 -14.2209 -14.2209 -14.0573
   -14.0180 -13.8369 -13.8369 -13.6481 -13.6481 -13.5632 -13.5632 -13.4847
   -13.2331 -13.2331  -7.1579  -6.9613  -6.8511  -6.8511  -6.7399  -6.7399
    -6.5059  -6.5059  -6.4127  -6.4127  -6.3788  -6.2052  -5.9833  -5.9833
    -5.3569  -5.3569  -5.3228  -5.2214  -5.2213  -5.2130  -5.1943  -5.1943
    -5.1090  -5.1090  -4.8082  -4.5690  -4.5690  -4.4634  -4.4634  -4.3695
    -4.3694  -4.2774  -4.1944  -4.1944  -4.1042  -3.7268  -3.6999  -3.5405
    -3.2534  -3.2533  -3.1748  -2.9882  -2.9882  -2.8281  -2.8281  -2.7564
    -2.7564  -2.7150  -2.6903  -2.6602  -2.6602  -2.5882  -2.3545  -2.1113
    -1.9819  -1.9819  -1.9817  -1.9457  -1.8487  -1.8487  -1.4155  -1.4154
    -1.4047

          k = 0.2486-0.7175 0.0000 (125191 PWs)   bands (ev):

   -15.6396 -15.2494 -15.2494 -14.3341 -14.3168 -14.3168 -14.1159 -14.1159
   -13.9076 -13.8756 -13.8756 -13.7280 -13.6054 -13.6054 -13.3850 -13.3849
   -13.3789 -13.2907  -7.2343  -7.2343  -7.0061  -6.7351  -6.6235  -6.5462
    -6.5462  -6.5418  -6.4113  -6.4112  -6.3828  -6.3828  -6.3203  -5.7457
    -5.7457  -5.3370  -5.3370  -5.2887  -5.0689  -5.0688  -5.0307  -5.0307
    -4.9088  -4.6368  -4.6120  -4.6119  -4.5115  -4.4949  -4.4427  -4.4427
    -4.4228  -4.4227  -4.2916  -3.8982  -3.8370  -3.8370  -3.6227  -3.5898
    -3.5015  -3.5014  -3.1968  -3.1785  -3.1785  -2.9740  -2.9740  -2.9297
    -2.9136  -2.6405  -2.6405  -2.6233  -2.6233  -2.3585  -2.3585  -2.2510
    -1.8552  -1.8552  -1.7358  -1.7358  -1.6961  -1.6263  -1.6263  -1.4837
    -1.4788

          k = 0.2486-0.4305 0.0000 (125191 PWs)   bands (ev):

   -15.6396 -15.2494 -15.2494 -14.3341 -14.3168 -14.3168 -14.1159 -14.1159
   -13.9076 -13.8756 -13.8756 -13.7280 -13.6054 -13.6054 -13.3850 -13.3849
   -13.3789 -13.2907  -7.2343  -7.2343  -7.0061  -6.7351  -6.6235  -6.5462
    -6.5462  -6.5418  -6.4113  -6.4113  -6.3828  -6.3828  -6.3203  -5.7457
    -5.7457  -5.3370  -5.3370  -5.2887  -5.0689  -5.0688  -5.0307  -5.0307
    -4.9088  -4.6368  -4.6120  -4.6120  -4.5115  -4.4949  -4.4427  -4.4427
    -4.4228  -4.4227  -4.2916  -3.8982  -3.8370  -3.8370  -3.6227  -3.5897
    -3.5015  -3.5014  -3.1967  -3.1785  -3.1785  -2.9740  -2.9740  -2.9297
    -2.9136  -2.6405  -2.6405  -2.6233  -2.6233  -2.3585  -2.3585  -2.2510
    -1.8552  -1.8551  -1.7358  -1.7358  -1.6960  -1.6263  -1.6263  -1.4837
    -1.4788

          k =-0.4971 0.2870 0.0000 (125190 PWs)   bands (ev):

   -15.5388 -15.5387 -14.8142 -14.8142 -14.2776 -14.2775 -13.8970 -13.8970
   -13.8970 -13.8970 -13.8755 -13.8754 -13.8648 -13.3868 -13.3810 -13.3810
   -13.3810 -13.3810  -7.3935  -6.8578  -6.8578  -6.8578  -6.8577  -6.6404
    -6.6403  -6.4013  -6.3406  -6.3406  -6.3406  -6.3406  -6.3048  -6.3048
    -5.3895  -5.2161  -5.2161  -5.1610  -5.1610  -5.1610  -5.1610  -4.9121
    -4.9120  -4.6872  -4.6872  -4.5690  -4.5690  -4.5689  -4.5689  -4.4680
    -4.4680  -4.3622  -4.0893  -4.0893  -3.6324  -3.6324  -3.6324  -3.6324
    -3.5395  -3.5394  -3.2259  -3.0940  -3.0940  -3.0110  -3.0110  -3.0110
    -3.0110  -2.8569  -2.8569  -2.4287  -2.4287  -2.4042  -2.4042  -1.9405
    -1.8520  -1.8520  -1.8355  -1.6492  -1.6492  -1.6492  -1.6491  -1.5684
    -1.5684

          k =-0.4971 0.5740 0.0000 (125191 PWs)   bands (ev):

   -15.6396 -15.2494 -15.2494 -14.3341 -14.3168 -14.3168 -14.1159 -14.1159
   -13.9076 -13.8756 -13.8756 -13.7279 -13.6054 -13.6054 -13.3850 -13.3850
   -13.3789 -13.2907  -7.2343  -7.2343  -7.0061  -6.7351  -6.6235  -6.5462
    -6.5462  -6.5418  -6.4113  -6.4112  -6.3828  -6.3828  -6.3203  -5.7457
    -5.7457  -5.3370  -5.3370  -5.2887  -5.0688  -5.0688  -5.0307  -5.0307
    -4.9088  -4.6368  -4.6120  -4.6120  -4.5116  -4.4949  -4.4427  -4.4427
    -4.4227  -4.4227  -4.2916  -3.8983  -3.8370  -3.8370  -3.6228  -3.5897
    -3.5015  -3.5014  -3.1967  -3.1785  -3.1785  -2.9740  -2.9740  -2.9297
    -2.9136  -2.6405  -2.6405  -2.6233  -2.6233  -2.3585  -2.3585  -2.2510
    -1.8552  -1.8552  -1.7358  -1.7358  -1.6960  -1.6263  -1.6263  -1.4837
    -1.4788

          k =-0.4971-0.2870 0.0000 (125190 PWs)   bands (ev):

   -15.5388 -15.5387 -14.8142 -14.8142 -14.2776 -14.2775 -13.8970 -13.8970
   -13.8970 -13.8970 -13.8755 -13.8755 -13.8648 -13.3868 -13.3810 -13.3810
   -13.3810 -13.3810  -7.3935  -6.8578  -6.8578  -6.8578  -6.8577  -6.6404
    -6.6403  -6.4013  -6.3406  -6.3406  -6.3406  -6.3406  -6.3048  -6.3048
    -5.3895  -5.2161  -5.2161  -5.1610  -5.1610  -5.1610  -5.1610  -4.9121
    -4.9120  -4.6872  -4.6872  -4.5690  -4.5690  -4.5689  -4.5689  -4.4680
    -4.4680  -4.3622  -4.0893  -4.0893  -3.6324  -3.6324  -3.6324  -3.6324
    -3.5395  -3.5394  -3.2259  -3.0940  -3.0940  -3.0110  -3.0110  -3.0110
    -3.0110  -2.8569  -2.8569  -2.4287  -2.4287  -2.4042  -2.4042  -1.9405
    -1.8520  -1.8520  -1.8355  -1.6492  -1.6492  -1.6492  -1.6491  -1.5684
    -1.5684

     highest occupied level (ev):    -1.2492

!    total energy              =    -501.66250522 Ry
     estimated scf accuracy    <       0.00000009 Ry

     The total energy is the sum of the following terms:
     one-electron contribution =   -4132.24836805 Ry
     hartree contribution      =    2103.96807723 Ry
     xc contribution           =    -116.18923829 Ry
     ewald contribution        =    1642.80702388 Ry

     convergence has been achieved in  22 iterations

     Forces acting on atoms (cartesian axes, Ry/au):

     atom    1 type  3   force =    -0.00000495    0.00000077   -0.00538428
     atom    2 type  1   force =    -0.00001565   -0.00000264    0.02755005
     atom    3 type  2   force =    -0.00001330   -0.00000064   -0.02216674
     atom    4 type  3   force =     0.00000153   -0.00000068   -0.00538352
     atom    5 type  1   force =     0.00001642    0.00000722    0.02754436
     atom    6 type  2   force =     0.00001519    0.00000837   -0.02215960
     atom    7 type  3   force =     0.00000432    0.00000343   -0.00538443
     atom    8 type  1   force =    -0.00000220    0.00000357    0.02752933
     atom    9 type  2   force =    -0.00000203    0.00000427   -0.02214261
     atom   10 type  3   force =    -0.00000161    0.00000284   -0.00538590
     atom   11 type  1   force =     0.00000954    0.00001011    0.02753986
     atom   12 type  2   force =     0.00000890    0.00000817   -0.02215414
     atom   13 type  3   force =     0.00000550    0.00000463   -0.00538698
     atom   14 type  1   force =     0.00000264   -0.00000309    0.02752834
     atom   15 type  2   force =     0.00000261   -0.00000330   -0.02214266
     atom   16 type  3   force =    -0.00000133   -0.00000244   -0.00538532
     atom   17 type  1   force =    -0.00001366   -0.00000456    0.02753939
     atom   18 type  2   force =    -0.00001245   -0.00000459   -0.02215305
     atom   19 type  3   force =     0.00000214   -0.00000042   -0.00538814
     atom   20 type  1   force =    -0.00000537   -0.00000261    0.02753372
     atom   21 type  2   force =    -0.00000448   -0.00000160   -0.02214912
     atom   22 type  3   force =    -0.00000171   -0.00000504   -0.00538246
     atom   23 type  1   force =    -0.00000669   -0.00001297    0.02754848
     atom   24 type  2   force =    -0.00000495   -0.00001128   -0.02216421
     atom   25 type  3   force =     0.00000192   -0.00000469   -0.00538644
     atom   26 type  1   force =     0.00001070    0.00000401    0.02753879
     atom   27 type  2   force =     0.00000898    0.00000317   -0.02215271

     Total force =     0.107256     Total SCF correction =     0.000839


     Computing stress (Cartesian axis) and pressure

          total   stress  (Ry/bohr**3)                   (kbar)     P=       18.21
   0.00012317   0.00000000  -0.00000000           18.12        0.00       -0.00
   0.00000000   0.00012319  -0.00000000            0.00       18.12       -0.00
  -0.00000000  -0.00000000   0.00012493           -0.00       -0.00       18.38

     Energy error            =      1.3E-01 Ry
     Gradient error          =      2.8E-02 Ry/Bohr
     Cell gradient error     =      1.8E+01 kbar

     number of scf cycles    =   2
     number of bfgs steps    =   1

     enthalpy           old  =    -501.5285112352 Ry
     enthalpy           new  =    -501.6625052247 Ry

     CASE: enthalpy          _new < enthalpy          _old

     new trust radius        =       0.0826665018 bohr
     new conv_thr            =       0.0000001000 Ry

     new unit-cell volume =  10564.22374 a.u.^3 (  1565.45645 Ang^3 )
     density =      1.97587 g/cm^3

CELL_PARAMETERS (angstrom)
   9.506951277   0.000000366   0.000000000
   4.753470980   8.233220281   0.000000000
   0.000000000   0.000000000  20.000000000

ATOMIC_POSITIONS (angstrom)
Mo              -0.0009556377        0.0048429868        0.0581371700
S                1.5835362601        0.9196386635        1.5818228173
Se               1.5835373967        0.9196387505       -1.6399603017
Mo               3.1680295973        0.0048446337        0.0581351721
S                4.7525243578        0.9196440547        1.5818188076
Se               4.7525241192        0.9196434928       -1.6399559825
Mo               6.3370152916        0.0048440430        0.0581381365
S                7.9215028653        0.9196392057        1.5818176548
Se               7.9215024512        0.9196396240       -1.6399545888
Mo               1.5835376879        2.7492536872        0.0581372644
S                3.1680337964        3.6640618661        1.5818201622
Se               3.1680334579        3.6640603107       -1.6399560799
Mo               4.7525201883        2.7492546741        0.0581358468
S                6.3370073412        3.6640540077        1.5818188003
Se               6.3370080085        3.6640536085       -1.6399565183
Mo               7.9215016037        2.7492508877        0.0581370056
S                9.5059935574        3.6640517504        1.5818269342
Se               9.5059928295        3.6640521992       -1.6399631146
Mo               3.1680279245        5.4936605195        0.0581368908
S                4.7525121892        6.4084564228        1.5818143193
Se               4.7525131805        6.4084570348       -1.6399518098
Mo               6.3370074801        5.4936601812        0.0581369075
S                7.9214967780        6.4084617141        1.5818219214
Se               7.9214981325        6.4084623134       -1.6399603088
Mo               9.5059973916        5.4936602091        0.0581383209
S               11.0904971075        6.4084623752        1.5818191971
Se              11.0904948232        6.4084622253       -1.6399546243



     Writing config-only to output data dir /scratch/asgouros/train_MoSSe_defT_3x3//ref/ref.save/ :
     XML data file
     NEW-OLD atomic charge density approx. for the potential

     negative rho (up, down):  1.021E-05 0.000E+00

     total cpu time spent up to now is     3454.5 secs

     Self-consistent Calculation

     iteration #  1     ecut=    80.00 Ry     beta= 0.70
     Davidson diagonalization with overlap
     ethr =  1.00E-06,  avg # of iterations = 13.1

     negative rho (up, down):  1.670E-06 0.000E+00

     total cpu time spent up to now is     3629.9 secs

     total energy              =    -501.63418191 Ry
     estimated scf accuracy    <       0.06792103 Ry

     iteration #  2     ecut=    80.00 Ry     beta= 0.70
     Davidson diagonalization with overlap
     ethr =  4.19E-05,  avg # of iterations =  7.0

     negative rho (up, down):  1.177E-06 0.000E+00

     total cpu time spent up to now is     3724.9 secs

     total energy              =    -501.59863486 Ry
     estimated scf accuracy    <       0.73444145 Ry

     iteration #  3     ecut=    80.00 Ry     beta= 0.70
     Davidson diagonalization with overlap
     ethr =  4.19E-05,  avg # of iterations =  6.0

     negative rho (up, down):  9.774E-07 0.000E+00

     total cpu time spent up to now is     3805.2 secs

     total energy              =    -501.67333971 Ry
     estimated scf accuracy    <       0.03327063 Ry

     iteration #  4     ecut=    80.00 Ry     beta= 0.70
     Davidson diagonalization with overlap
     ethr =  2.05E-05,  avg # of iterations =  4.8

     negative rho (up, down):  1.439E-07 0.000E+00

     total cpu time spent up to now is     3852.2 secs

     total energy              =    -501.67741452 Ry
     estimated scf accuracy    <       0.00371947 Ry

     iteration #  5     ecut=    80.00 Ry     beta= 0.70
     Davidson diagonalization with overlap
     ethr =  2.30E-06,  avg # of iterations =  9.3

     negative rho (up, down):  5.192E-08 0.000E+00

     total cpu time spent up to now is     3925.5 secs

     total energy              =    -501.68043305 Ry
     estimated scf accuracy    <       0.00285669 Ry

     iteration #  6     ecut=    80.00 Ry     beta= 0.70
     Davidson diagonalization with overlap
     ethr =  1.76E-06,  avg # of iterations =  1.1

     negative rho (up, down):  1.244E-08 0.000E+00

     total cpu time spent up to now is     3961.4 secs

     total energy              =    -501.68018277 Ry
     estimated scf accuracy    <       0.00196436 Ry

     iteration #  7     ecut=    80.00 Ry     beta= 0.70
     Davidson diagonalization with overlap
     ethr =  1.21E-06,  avg # of iterations =  2.0

     total cpu time spent up to now is     4008.0 secs

     total energy              =    -501.68005374 Ry
     estimated scf accuracy    <       0.00076057 Ry

     iteration #  8     ecut=    80.00 Ry     beta= 0.70
     Davidson diagonalization with overlap
     ethr =  4.69E-07,  avg # of iterations =  4.8

     total cpu time spent up to now is     4075.3 secs

     total energy              =    -501.68026460 Ry
     estimated scf accuracy    <       0.00018109 Ry

     iteration #  9     ecut=    80.00 Ry     beta= 0.70
     Davidson diagonalization with overlap
     ethr =  1.12E-07,  avg # of iterations =  4.9

     total cpu time spent up to now is     4138.6 secs

     total energy              =    -501.68023917 Ry
     estimated scf accuracy    <       0.00022644 Ry

     iteration # 10     ecut=    80.00 Ry     beta= 0.70
     Davidson diagonalization with overlap
     ethr =  1.12E-07,  avg # of iterations =  3.8

     total cpu time spent up to now is     4194.5 secs

     total energy              =    -501.68026530 Ry
     estimated scf accuracy    <       0.00000926 Ry

     iteration # 11     ecut=    80.00 Ry     beta= 0.70
     Davidson diagonalization with overlap
     ethr =  5.72E-09,  avg # of iterations =  8.6

     total cpu time spent up to now is     4311.2 secs

     total energy              =    -501.68027240 Ry
     estimated scf accuracy    <       0.00005692 Ry

     iteration # 12     ecut=    80.00 Ry     beta= 0.70
     Davidson diagonalization with overlap
     ethr =  5.72E-09,  avg # of iterations =  4.0

     total cpu time spent up to now is     4375.6 secs

     total energy              =    -501.68027449 Ry
     estimated scf accuracy    <       0.00000902 Ry

     iteration # 13     ecut=    80.00 Ry     beta= 0.70
     Davidson diagonalization with overlap
     ethr =  5.57E-09,  avg # of iterations =  4.6

     total cpu time spent up to now is     4431.1 secs

     total energy              =    -501.68027536 Ry
     estimated scf accuracy    <       0.00000105 Ry

     iteration # 14     ecut=    80.00 Ry     beta= 0.70
     Davidson diagonalization with overlap
     ethr =  6.51E-10,  avg # of iterations =  7.9

     total cpu time spent up to now is     4536.5 secs

     total energy              =    -501.68027646 Ry
     estimated scf accuracy    <       0.00000588 Ry

     iteration # 15     ecut=    80.00 Ry     beta= 0.70
     Davidson diagonalization with overlap
     ethr =  6.51E-10,  avg # of iterations =  2.0

     total cpu time spent up to now is     4584.4 secs

     total energy              =    -501.68027619 Ry
     estimated scf accuracy    <       0.00000349 Ry

     iteration # 16     ecut=    80.00 Ry     beta= 0.70
     Davidson diagonalization with overlap
     ethr =  6.51E-10,  avg # of iterations =  3.1

     total cpu time spent up to now is     4633.5 secs

     total energy              =    -501.68027590 Ry
     estimated scf accuracy    <       0.00000177 Ry

     iteration # 17     ecut=    80.00 Ry     beta= 0.70
     Davidson diagonalization with overlap
     ethr =  6.51E-10,  avg # of iterations =  4.6

     total cpu time spent up to now is     4698.6 secs

     End of self-consistent calculation

          k = 0.0000 0.0000 0.0000 (125109 PWs)   bands (ev):

   -15.8758 -14.4918 -14.4744 -14.4743 -14.4743 -14.4743 -14.4743 -14.4743
   -13.7021 -13.7021 -13.7020 -13.7020 -13.7020 -13.7020 -13.5231 -13.5231
   -13.1519 -13.1519  -7.0205  -6.7573  -6.7573  -6.5654  -6.5654  -6.5654
    -6.5654  -6.5654  -6.5654  -6.0805  -6.0805  -5.6255  -5.6255  -5.6255
    -5.6255  -5.6255  -5.6255  -5.5256  -5.5256  -5.2079  -5.2079  -5.2079
    -5.2079  -5.2079  -5.2079  -4.8057  -4.8057  -4.3704  -4.3703  -3.9814
    -3.9814  -3.9814  -3.9814  -3.9813  -3.9813  -3.7547  -3.7547  -3.4557
    -3.4557  -3.3615  -3.0564  -3.0564  -3.0564  -3.0563  -3.0563  -3.0563
    -2.3970  -2.3970  -2.2743  -2.2743  -2.2743  -2.2742  -2.2742  -2.2742
    -2.2401  -2.2401  -2.2401  -2.2401  -2.2400  -2.2400  -1.4478  -1.2607
    -1.2607

          k =-0.0000 0.2859 0.0000 (125212 PWs)   bands (ev):

   -15.7704 -15.0073 -14.6825 -14.6825 -14.4304 -14.1751 -14.1751 -14.0149
   -13.9947 -13.8129 -13.8129 -13.6146 -13.6146 -13.5380 -13.5380 -13.4585
   -13.2091 -13.2091  -7.0837  -6.8962  -6.7716  -6.7716  -6.6562  -6.6561
    -6.4457  -6.4457  -6.3232  -6.3232  -6.2975  -6.1637  -5.9361  -5.9361
    -5.3200  -5.3200  -5.2843  -5.1932  -5.1932  -5.1753  -5.1500  -5.1499
    -5.0811  -5.0811  -4.7699  -4.5519  -4.5519  -4.4545  -4.4544  -4.3226
    -4.3226  -4.2184  -4.1513  -4.1513  -4.0442  -3.6613  -3.6507  -3.5402
    -3.2933  -3.2933  -3.2159  -3.0212  -3.0212  -2.8069  -2.8069  -2.7576
    -2.7540  -2.7540  -2.6935  -2.6935  -2.6435  -2.5473  -2.3507  -2.1237
    -2.0091  -1.9890  -1.9890  -1.9386  -1.8477  -1.8477  -1.4555  -1.4213
    -1.4213

          k = 0.0000-0.5717 0.0000 (125190 PWs)   bands (ev):

   -15.4670 -15.4670 -14.7565 -14.7565 -14.2552 -14.2552 -13.8581 -13.8581
   -13.8581 -13.8580 -13.8518 -13.8518 -13.8267 -13.3599 -13.3561 -13.3561
   -13.3561 -13.3561  -7.3238  -6.7861  -6.7861  -6.7861  -6.7861  -6.5738
    -6.5737  -6.3606  -6.2761  -6.2761  -6.2761  -6.2761  -6.2156  -6.2156
    -5.3418  -5.1901  -5.1901  -5.1258  -5.1258  -5.1258  -5.1257  -4.8657
    -4.8657  -4.6320  -4.6320  -4.5407  -4.5407  -4.5407  -4.5407  -4.4331
    -4.4331  -4.3018  -4.0572  -4.0572  -3.6188  -3.6188  -3.6188  -3.6188
    -3.4868  -3.4868  -3.2661  -3.0664  -3.0664  -3.0531  -3.0531  -3.0531
    -3.0531  -2.8057  -2.8056  -2.4618  -2.4617  -2.4359  -2.4359  -1.9586
    -1.8693  -1.8693  -1.8366  -1.6509  -1.6509  -1.6509  -1.6509  -1.6120
    -1.6120

          k = 0.2476-0.1429 0.0000 (125212 PWs)   bands (ev):

   -15.7704 -15.0073 -14.6825 -14.6825 -14.4304 -14.1751 -14.1751 -14.0149
   -13.9947 -13.8129 -13.8129 -13.6146 -13.6146 -13.5380 -13.5379 -13.4585
   -13.2091 -13.2091  -7.0837  -6.8962  -6.7716  -6.7716  -6.6562  -6.6561
    -6.4457  -6.4457  -6.3232  -6.3232  -6.2975  -6.1637  -5.9361  -5.9361
    -5.3200  -5.3200  -5.2844  -5.1932  -5.1932  -5.1754  -5.1500  -5.1499
    -5.0811  -5.0811  -4.7699  -4.5519  -4.5519  -4.4545  -4.4544  -4.3226
    -4.3226  -4.2183  -4.1513  -4.1513  -4.0442  -3.6612  -3.6506  -3.5403
    -3.2934  -3.2933  -3.2159  -3.0212  -3.0212  -2.8069  -2.8068  -2.7576
    -2.7540  -2.7540  -2.6935  -2.6935  -2.6435  -2.5473  -2.3507  -2.1237
    -2.0092  -1.9890  -1.9890  -1.9385  -1.8477  -1.8477  -1.4555  -1.4213
    -1.4213

          k = 0.2476 0.1429 0.0000 (125212 PWs)   bands (ev):

   -15.7704 -15.0073 -14.6825 -14.6825 -14.4304 -14.1751 -14.1751 -14.0149
   -13.9947 -13.8129 -13.8129 -13.6146 -13.6146 -13.5380 -13.5379 -13.4585
   -13.2091 -13.2091  -7.0837  -6.8962  -6.7716  -6.7716  -6.6562  -6.6561
    -6.4457  -6.4457  -6.3232  -6.3232  -6.2975  -6.1637  -5.9361  -5.9361
    -5.3200  -5.3200  -5.2844  -5.1932  -5.1932  -5.1754  -5.1500  -5.1499
    -5.0811  -5.0811  -4.7699  -4.5519  -4.5519  -4.4545  -4.4544  -4.3226
    -4.3226  -4.2183  -4.1513  -4.1513  -4.0442  -3.6612  -3.6506  -3.5403
    -3.2934  -3.2933  -3.2159  -3.0212  -3.0212  -2.8069  -2.8068  -2.7576
    -2.7540  -2.7540  -2.6935  -2.6935  -2.6435  -2.5473  -2.3507  -2.1237
    -2.0092  -1.9890  -1.9890  -1.9385  -1.8477  -1.8477  -1.4555  -1.4213
    -1.4213

          k = 0.2476-0.7146 0.0000 (125191 PWs)   bands (ev):

   -15.5659 -15.1833 -15.1832 -14.3120 -14.2691 -14.2691 -14.0930 -14.0930
   -13.8684 -13.8372 -13.8372 -13.6928 -13.5810 -13.5810 -13.3587 -13.3587
   -13.3547 -13.2655  -7.1646  -7.1646  -6.9401  -6.6696  -6.5486  -6.4770
    -6.4609  -6.4609  -6.3380  -6.3380  -6.3350  -6.3350  -6.2452  -5.6859
    -5.6859  -5.2912  -5.2912  -5.2393  -5.0534  -5.0534  -4.9837  -4.9837
    -4.8965  -4.6178  -4.5826  -4.5826  -4.4678  -4.4539  -4.4058  -4.4058
    -4.3730  -4.3730  -4.2585  -3.8744  -3.7934  -3.7933  -3.6168  -3.5337
    -3.4765  -3.4765  -3.2371  -3.2175  -3.2175  -2.9581  -2.9298  -2.9298
    -2.8848  -2.6839  -2.6839  -2.6270  -2.6270  -2.3908  -2.3908  -2.2710
    -1.8555  -1.8555  -1.7692  -1.7691  -1.6950  -1.6329  -1.6329  -1.5245
    -1.4900

          k = 0.2476-0.4288 0.0000 (125191 PWs)   bands (ev):

   -15.5659 -15.1833 -15.1832 -14.3120 -14.2691 -14.2691 -14.0930 -14.0930
   -13.8684 -13.8372 -13.8372 -13.6928 -13.5810 -13.5810 -13.3587 -13.3587
   -13.3547 -13.2655  -7.1646  -7.1646  -6.9401  -6.6696  -6.5486  -6.4770
    -6.4609  -6.4609  -6.3380  -6.3380  -6.3350  -6.3350  -6.2452  -5.6859
    -5.6858  -5.2912  -5.2912  -5.2393  -5.0534  -5.0534  -4.9837  -4.9837
    -4.8965  -4.6178  -4.5826  -4.5826  -4.4678  -4.4539  -4.4058  -4.4058
    -4.3730  -4.3730  -4.2585  -3.8744  -3.7934  -3.7933  -3.6168  -3.5337
    -3.4765  -3.4764  -3.2371  -3.2175  -3.2175  -2.9581  -2.9298  -2.9298
    -2.8848  -2.6839  -2.6839  -2.6270  -2.6270  -2.3908  -2.3908  -2.2710
    -1.8555  -1.8555  -1.7692  -1.7691  -1.6950  -1.6329  -1.6329  -1.5245
    -1.4900

          k =-0.4951 0.2859 0.0000 (125190 PWs)   bands (ev):

   -15.4670 -15.4670 -14.7565 -14.7565 -14.2552 -14.2552 -13.8581 -13.8581
   -13.8581 -13.8580 -13.8518 -13.8518 -13.8267 -13.3599 -13.3561 -13.3561
   -13.3561 -13.3561  -7.3238  -6.7861  -6.7861  -6.7861  -6.7861  -6.5738
    -6.5737  -6.3606  -6.2761  -6.2761  -6.2761  -6.2761  -6.2156  -6.2156
    -5.3418  -5.1901  -5.1901  -5.1258  -5.1258  -5.1258  -5.1257  -4.8657
    -4.8657  -4.6320  -4.6320  -4.5407  -4.5407  -4.5407  -4.5407  -4.4331
    -4.4331  -4.3017  -4.0573  -4.0572  -3.6188  -3.6188  -3.6188  -3.6188
    -3.4868  -3.4868  -3.2661  -3.0664  -3.0664  -3.0531  -3.0531  -3.0531
    -3.0531  -2.8056  -2.8056  -2.4618  -2.4617  -2.4359  -2.4359  -1.9586
    -1.8694  -1.8693  -1.8365  -1.6509  -1.6509  -1.6509  -1.6509  -1.6120
    -1.6120

          k =-0.4951 0.5717 0.0000 (125191 PWs)   bands (ev):

   -15.5659 -15.1833 -15.1832 -14.3120 -14.2691 -14.2691 -14.0930 -14.0930
   -13.8684 -13.8372 -13.8372 -13.6927 -13.5810 -13.5810 -13.3587 -13.3587
   -13.3547 -13.2655  -7.1646  -7.1646  -6.9401  -6.6696  -6.5486  -6.4770
    -6.4609  -6.4609  -6.3380  -6.3380  -6.3350  -6.3350  -6.2451  -5.6859
    -5.6859  -5.2912  -5.2912  -5.2393  -5.0534  -5.0534  -4.9837  -4.9837
    -4.8965  -4.6178  -4.5827  -4.5826  -4.4678  -4.4539  -4.4059  -4.4058
    -4.3730  -4.3730  -4.2585  -3.8744  -3.7934  -3.7933  -3.6168  -3.5337
    -3.4765  -3.4765  -3.2371  -3.2175  -3.2175  -2.9581  -2.9298  -2.9298
    -2.8848  -2.6839  -2.6839  -2.6270  -2.6270  -2.3908  -2.3908  -2.2710
    -1.8555  -1.8555  -1.7692  -1.7691  -1.6950  -1.6329  -1.6329  -1.5245
    -1.4900

          k =-0.4951-0.2859 0.0000 (125190 PWs)   bands (ev):

   -15.4671 -15.4670 -14.7565 -14.7565 -14.2552 -14.2552 -13.8581 -13.8581
   -13.8580 -13.8580 -13.8518 -13.8518 -13.8267 -13.3599 -13.3561 -13.3561
   -13.3561 -13.3561  -7.3238  -6.7861  -6.7861  -6.7861  -6.7861  -6.5738
    -6.5737  -6.3606  -6.2762  -6.2761  -6.2761  -6.2761  -6.2156  -6.2156
    -5.3418  -5.1901  -5.1901  -5.1258  -5.1258  -5.1257  -5.1257  -4.8657
    -4.8657  -4.6320  -4.6320  -4.5407  -4.5407  -4.5407  -4.5407  -4.4331
    -4.4331  -4.3017  -4.0573  -4.0572  -3.6188  -3.6188  -3.6188  -3.6188
    -3.4868  -3.4867  -3.2661  -3.0664  -3.0664  -3.0531  -3.0531  -3.0531
    -3.0531  -2.8056  -2.8056  -2.4618  -2.4617  -2.4359  -2.4359  -1.9586
    -1.8694  -1.8693  -1.8365  -1.6509  -1.6509  -1.6509  -1.6509  -1.6120
    -1.6120

     highest occupied level (ev):    -1.2607

!    total energy              =    -501.68027618 Ry
     estimated scf accuracy    <       0.00000003 Ry

     The total energy is the sum of the following terms:
     one-electron contribution =   -4074.89734888 Ry
     hartree contribution      =    2075.21277956 Ry
     xc contribution           =    -115.82069832 Ry
     ewald contribution        =    1613.82499146 Ry

     convergence has been achieved in  17 iterations

     Forces acting on atoms (cartesian axes, Ry/au):

     atom    1 type  3   force =     0.00000147    0.00000141   -0.00653345
     atom    2 type  1   force =     0.00000254    0.00000197    0.01154802
     atom    3 type  2   force =     0.00000212    0.00000347   -0.00501416
     atom    4 type  3   force =    -0.00000057    0.00000107   -0.00653067
     atom    5 type  1   force =    -0.00000430   -0.00000139    0.01155023
     atom    6 type  2   force =    -0.00000296   -0.00000095   -0.00501620
     atom    7 type  3   force =    -0.00000047    0.00000117   -0.00653613
     atom    8 type  1   force =     0.00000089    0.00000068    0.01155457
     atom    9 type  2   force =     0.00000053    0.00000183   -0.00502014
     atom   10 type  3   force =     0.00000075   -0.00000006   -0.00653340
     atom   11 type  1   force =    -0.00000415   -0.00000227    0.01154945
     atom   12 type  2   force =    -0.00000420   -0.00000141   -0.00501521
     atom   13 type  3   force =     0.00000060    0.00000067   -0.00653503
     atom   14 type  1   force =     0.00000075    0.00000133    0.01155295
     atom   15 type  2   force =     0.00000102    0.00000089   -0.00501880
     atom   16 type  3   force =     0.00000214    0.00000015   -0.00653363
     atom   17 type  1   force =     0.00000290    0.00000232    0.01154580
     atom   18 type  2   force =     0.00000298    0.00000181   -0.00501146
     atom   19 type  3   force =    -0.00000190   -0.00000063   -0.00653520
     atom   20 type  1   force =     0.00000116   -0.00000072    0.01155410
     atom   21 type  2   force =     0.00000043   -0.00000039   -0.00501970
     atom   22 type  3   force =     0.00000313   -0.00000313   -0.00653419
     atom   23 type  1   force =     0.00000368    0.00000099    0.01154694
     atom   24 type  2   force =     0.00000325   -0.00000086   -0.00501334
     atom   25 type  3   force =    -0.00000512   -0.00000153   -0.00653612
     atom   26 type  1   force =    -0.00000325   -0.00000366    0.01154962
     atom   27 type  2   force =    -0.00000343   -0.00000279   -0.00501488

     Total force =     0.042560     Total SCF correction =     0.000486


     Computing stress (Cartesian axis) and pressure

          total   stress  (Ry/bohr**3)                   (kbar)     P=        8.51
   0.00006717   0.00000000   0.00000000            9.88        0.00        0.00
   0.00000000   0.00006718  -0.00000000            0.00        9.88       -0.00
   0.00000000  -0.00000000   0.00003912            0.00       -0.00        5.75

     Energy error            =      1.8E-02 Ry
     Gradient error          =      1.2E-02 Ry/Bohr
     Cell gradient error     =      9.9E+00 kbar

     number of scf cycles    =   3
     number of bfgs steps    =   2

     enthalpy           old  =    -501.6625052247 Ry
     enthalpy           new  =    -501.6802761767 Ry

     CASE: enthalpy          _new < enthalpy          _old

     new trust radius        =       0.0746154556 bohr
     new conv_thr            =       0.0000001000 Ry

     new unit-cell volume =  10641.04595 a.u.^3 (  1576.84032 Ang^3 )
     density =      1.96160 g/cm^3

CELL_PARAMETERS (angstrom)
   9.541451741   0.000000751   0.000000000
   4.770721527   8.263105230   0.000000000
   0.000000000   0.000000000  20.000000000

ATOMIC_POSITIONS (angstrom)
Mo              -0.0009579185        0.0048617193        0.0558313940
S                1.5892847983        0.9229781539        1.5941319032
Se               1.5892856799        0.9229796821       -1.6499632775
Mo               3.1795258262        0.0048632419        0.0558318015
S                4.7697677377        0.9229811455        1.5941295121
Se               4.7697687044        0.9229809715       -1.6499603741
Mo               6.3600119583        0.0048629233        0.0558299896
S                7.9502504332        0.9229779193        1.5941318759
Se               7.9502496627        0.9229794426       -1.6499620754
Mo               1.5892851982        2.7592330149        0.0558315027
S                3.1795273813        3.6773604858        1.5941301493
Se               3.1795269636        3.6773595780       -1.6499594535
Mo               4.7697677939        2.7592349129        0.0558284892
S                6.3600047752        3.6773552500        1.5941316070
Se               6.3600057366        3.6773544051       -1.6499629142
Mo               7.9502504684        2.7592303422        0.0558310332
S                9.5404929268        3.6773538421        1.5941340393
Se               9.5404922530        3.6773538460       -1.6499635245
Mo               3.1795232387        5.5136009024        0.0558294225
S                4.7697597305        6.4317170091        1.5941280003
Se               4.7697601336        6.4317179918       -1.6499588668
Mo               6.3600072409        5.5135982428        0.0558304821
S                7.9502468317        6.4317241302        1.5941299434
Se               7.9502479217        6.4317230945       -1.6499624874
Mo               9.5404901640        5.5135998837        0.0558301490
S               11.1307424241        6.4317210334        1.5941292546
Se              11.1307397712        6.4317216594       -1.6499575756



     Writing config-only to output data dir /scratch/asgouros/train_MoSSe_defT_3x3//ref/ref.save/ :
     XML data file
     NEW-OLD atomic charge density approx. for the potential

     negative rho (up, down):  6.153E-06 0.000E+00

     total cpu time spent up to now is     4855.0 secs

     Self-consistent Calculation

     iteration #  1     ecut=    80.00 Ry     beta= 0.70
     Davidson diagonalization with overlap
     ethr =  1.00E-06,  avg # of iterations = 10.8

     negative rho (up, down):  9.020E-07 0.000E+00

     total cpu time spent up to now is     5007.3 secs

     total energy              =    -501.66586272 Ry
     estimated scf accuracy    <       0.02856078 Ry

     iteration #  2     ecut=    80.00 Ry     beta= 0.70
     Davidson diagonalization with overlap
     ethr =  1.76E-05,  avg # of iterations =  7.0

     negative rho (up, down):  6.813E-07 0.000E+00

     total cpu time spent up to now is     5102.8 secs

     total energy              =    -501.65150338 Ry
     estimated scf accuracy    <       0.30295823 Ry

     iteration #  3     ecut=    80.00 Ry     beta= 0.70
     Davidson diagonalization with overlap
     ethr =  1.76E-05,  avg # of iterations =  6.9

     negative rho (up, down):  5.638E-07 0.000E+00

     total cpu time spent up to now is     5185.8 secs

     total energy              =    -501.68259685 Ry
     estimated scf accuracy    <       0.01025259 Ry

     iteration #  4     ecut=    80.00 Ry     beta= 0.70
     Davidson diagonalization with overlap
     ethr =  6.33E-06,  avg # of iterations =  5.3

     negative rho (up, down):  5.384E-08 0.000E+00

     total cpu time spent up to now is     5245.9 secs

     total energy              =    -501.68451931 Ry
     estimated scf accuracy    <       0.00051050 Ry

     iteration #  5     ecut=    80.00 Ry     beta= 0.70
     Davidson diagonalization with overlap
     ethr =  3.15E-07,  avg # of iterations =  8.7

     total cpu time spent up to now is     5347.3 secs

     total energy              =    -501.68515804 Ry
     estimated scf accuracy    <       0.00058542 Ry

     iteration #  6     ecut=    80.00 Ry     beta= 0.70
     Davidson diagonalization with overlap
     ethr =  3.15E-07,  avg # of iterations =  1.5

     total cpu time spent up to now is     5391.6 secs

     total energy              =    -501.68512646 Ry
     estimated scf accuracy    <       0.00034829 Ry

     iteration #  7     ecut=    80.00 Ry     beta= 0.70
     Davidson diagonalization with overlap
     ethr =  2.15E-07,  avg # of iterations =  2.0

     total cpu time spent up to now is     5437.8 secs

     total energy              =    -501.68509770 Ry
     estimated scf accuracy    <       0.00016561 Ry

     iteration #  8     ecut=    80.00 Ry     beta= 0.70
     Davidson diagonalization with overlap
     ethr =  1.02E-07,  avg # of iterations =  5.0

     total cpu time spent up to now is     5496.1 secs

     total energy              =    -501.68513643 Ry
     estimated scf accuracy    <       0.00002875 Ry

     iteration #  9     ecut=    80.00 Ry     beta= 0.70
     Davidson diagonalization with overlap
     ethr =  1.77E-08,  avg # of iterations =  5.5

     total cpu time spent up to now is     5551.1 secs

     total energy              =    -501.68513955 Ry
     estimated scf accuracy    <       0.00003205 Ry

     iteration # 10     ecut=    80.00 Ry     beta= 0.70
     Davidson diagonalization with overlap
     ethr =  1.77E-08,  avg # of iterations =  2.2

     total cpu time spent up to now is     5588.0 secs

     total energy              =    -501.68513893 Ry
     estimated scf accuracy    <       0.00000976 Ry

     iteration # 11     ecut=    80.00 Ry     beta= 0.70
     Davidson diagonalization with overlap
     ethr =  6.02E-09,  avg # of iterations =  4.9

     total cpu time spent up to now is     5643.4 secs

     total energy              =    -501.68514115 Ry
     estimated scf accuracy    <       0.00000010 Ry

     iteration # 12     ecut=    80.00 Ry     beta= 0.70
     Davidson diagonalization with overlap
     ethr =  6.40E-11,  avg # of iterations = 12.6

     total cpu time spent up to now is     5796.4 secs

     total energy              =    -501.68514128 Ry
     estimated scf accuracy    <       0.00000226 Ry

     iteration # 13     ecut=    80.00 Ry     beta= 0.70
     Davidson diagonalization with overlap
     ethr =  6.40E-11,  avg # of iterations =  7.4

     total cpu time spent up to now is     5887.7 secs

     total energy              =    -501.68514143 Ry
     estimated scf accuracy    <       0.00000028 Ry

     iteration # 14     ecut=    80.00 Ry     beta= 0.70
     Davidson diagonalization with overlap
     ethr =  6.40E-11,  avg # of iterations =  3.5

     total cpu time spent up to now is     5945.1 secs

     End of self-consistent calculation

          k = 0.0000 0.0000 0.0000 (125109 PWs)   bands (ev):

   -15.8272 -14.4737 -14.4522 -14.4522 -14.4522 -14.4522 -14.4522 -14.4522
   -13.6853 -13.6853 -13.6853 -13.6853 -13.6853 -13.6853 -13.5235 -13.5235
   -13.1373 -13.1373  -6.9812  -6.6992  -6.6992  -6.5134  -6.5134  -6.5134
    -6.5133  -6.5133  -6.5133  -6.0535  -6.0535  -5.5999  -5.5999  -5.5999
    -5.5999  -5.5999  -5.5999  -5.4932  -5.4932  -5.2020  -5.2020  -5.2020
    -5.2020  -5.2020  -5.2020  -4.8000  -4.8000  -4.3732  -4.3732  -3.9523
    -3.9523  -3.9522  -3.9522  -3.9522  -3.9522  -3.7145  -3.7145  -3.4857
    -3.4857  -3.3761  -3.0813  -3.0813  -3.0813  -3.0813  -3.0813  -3.0813
    -2.3978  -2.3978  -2.2962  -2.2962  -2.2962  -2.2962  -2.2962  -2.2962
    -2.2479  -2.2479  -2.2479  -2.2479  -2.2479  -2.2478  -1.4979  -1.2779
    -1.2779

          k =-0.0000 0.2848 0.0000 (125212 PWs)   bands (ev):

   -15.7237 -14.9745 -14.6561 -14.6561 -14.4125 -14.1596 -14.1596 -14.0033
   -13.9777 -13.7963 -13.7963 -13.6126 -13.6126 -13.5214 -13.5214 -13.4414
   -13.1941 -13.1941  -7.0389  -6.8575  -6.7243  -6.7243  -6.6084  -6.6084
    -6.4031  -6.4031  -6.2695  -6.2695  -6.2498  -6.1335  -5.9051  -5.9051
    -5.2978  -5.2978  -5.2664  -5.1826  -5.1826  -5.1502  -5.1281  -5.1281
    -5.0750  -5.0750  -4.7605  -4.5464  -4.5464  -4.4531  -4.4530  -4.2977
    -4.2976  -4.1876  -4.1280  -4.1280  -4.0059  -3.6223  -3.6216  -3.5447
    -3.3252  -3.3252  -3.2434  -3.0447  -3.0447  -2.8097  -2.8097  -2.7808
    -2.7672  -2.7672  -2.7152  -2.7152  -2.6415  -2.5471  -2.3590  -2.1447
    -2.0443  -2.0145  -2.0145  -1.9576  -1.8663  -1.8663  -1.5060  -1.4363
    -1.4363

          k = 0.0000-0.5696 0.0000 (125190 PWs)   bands (ev):

   -15.4257 -15.4257 -14.7286 -14.7286 -14.2378 -14.2378 -13.8500 -13.8500
   -13.8500 -13.8500 -13.8353 -13.8353 -13.8199 -13.3425 -13.3402 -13.3401
   -13.3401 -13.3401  -7.2806  -6.7445  -6.7445  -6.7445  -6.7445  -6.5352
    -6.5352  -6.3293  -6.2324  -6.2324  -6.2323  -6.2323  -6.1628  -6.1628
    -5.3176  -5.1742  -5.1742  -5.1109  -5.1109  -5.1109  -5.1109  -4.8494
    -4.8494  -4.5940  -4.5940  -4.5255  -4.5255  -4.5255  -4.5255  -4.4150
    -4.4150  -4.2704  -4.0526  -4.0525  -3.6209  -3.6208  -3.6208  -3.6208
    -3.4507  -3.4507  -3.2939  -3.0852  -3.0852  -3.0852  -3.0852  -3.0654
    -3.0654  -2.8046  -2.8046  -2.4801  -2.4801  -2.4549  -2.4549  -1.9831
    -1.9029  -1.9029  -1.8601  -1.6667  -1.6667  -1.6667  -1.6667  -1.6595
    -1.6595

          k = 0.2467-0.1424 0.0000 (125212 PWs)   bands (ev):

   -15.7237 -14.9745 -14.6561 -14.6561 -14.4125 -14.1596 -14.1596 -14.0033
   -13.9777 -13.7963 -13.7963 -13.6127 -13.6126 -13.5214 -13.5214 -13.4414
   -13.1941 -13.1941  -7.0389  -6.8575  -6.7243  -6.7243  -6.6084  -6.6083
    -6.4031  -6.4031  -6.2695  -6.2695  -6.2498  -6.1335  -5.9051  -5.9051
    -5.2978  -5.2978  -5.2664  -5.1826  -5.1826  -5.1502  -5.1281  -5.1281
    -5.0750  -5.0749  -4.7605  -4.5464  -4.5464  -4.4531  -4.4530  -4.2977
    -4.2976  -4.1876  -4.1281  -4.1280  -4.0059  -3.6222  -3.6215  -3.5447
    -3.3252  -3.3252  -3.2434  -3.0447  -3.0447  -2.8097  -2.8096  -2.7808
    -2.7672  -2.7672  -2.7152  -2.7152  -2.6415  -2.5470  -2.3591  -2.1447
    -2.0444  -2.0145  -2.0145  -1.9575  -1.8663  -1.8663  -1.5060  -1.4363
    -1.4363

          k = 0.2467 0.1424 0.0000 (125212 PWs)   bands (ev):

   -15.7237 -14.9745 -14.6561 -14.6561 -14.4125 -14.1596 -14.1596 -14.0033
   -13.9777 -13.7963 -13.7963 -13.6127 -13.6126 -13.5214 -13.5214 -13.4414
   -13.1941 -13.1941  -7.0389  -6.8575  -6.7243  -6.7243  -6.6084  -6.6083
[...]

     total energy              =    -501.68757620 Ry
     estimated scf accuracy    <       0.00271369 Ry

     iteration # 12     ecut=    80.00 Ry     beta= 0.70
     Davidson diagonalization with overlap
     ethr =  1.68E-06,  avg # of iterations =  7.1

     total cpu time spent up to now is    13421.5 secs

     total energy              =    -501.68822108 Ry
     estimated scf accuracy    <       0.00097247 Ry

     iteration # 13     ecut=    80.00 Ry     beta= 0.70
     Davidson diagonalization with overlap
     ethr =  6.00E-07,  avg # of iterations =  4.4

     total cpu time spent up to now is    13477.3 secs

     total energy              =    -501.68833313 Ry
     estimated scf accuracy    <       0.00019995 Ry

     iteration # 14     ecut=    80.00 Ry     beta= 0.70
     Davidson diagonalization with overlap
     ethr =  1.23E-07,  avg # of iterations =  5.9

     total cpu time spent up to now is    13540.0 secs

     total energy              =    -501.68837262 Ry
     estimated scf accuracy    <       0.00005216 Ry

     iteration # 15     ecut=    80.00 Ry     beta= 0.70
     Davidson diagonalization with overlap
     ethr =  3.22E-08,  avg # of iterations =  5.2

     total cpu time spent up to now is    13608.2 secs

     total energy              =    -501.68838251 Ry
     estimated scf accuracy    <       0.00001697 Ry

     iteration # 16     ecut=    80.00 Ry     beta= 0.70
     Davidson diagonalization with overlap
     ethr =  1.05E-08,  avg # of iterations =  6.1

     total cpu time spent up to now is    13679.3 secs

     total energy              =    -501.68838595 Ry
     estimated scf accuracy    <       0.00000880 Ry

     iteration # 17     ecut=    80.00 Ry     beta= 0.70
     Davidson diagonalization with overlap
     ethr =  5.43E-09,  avg # of iterations =  5.6

     total cpu time spent up to now is    13740.6 secs

     total energy              =    -501.68838706 Ry
     estimated scf accuracy    <       0.00000413 Ry

     iteration # 18     ecut=    80.00 Ry     beta= 0.70
     Davidson diagonalization with overlap
     ethr =  2.55E-09,  avg # of iterations =  4.7

     total cpu time spent up to now is    13798.8 secs

     total energy              =    -501.68838754 Ry
     estimated scf accuracy    <       0.00000580 Ry

     iteration # 19     ecut=    80.00 Ry     beta= 0.70
     Davidson diagonalization with overlap
     ethr =  2.55E-09,  avg # of iterations =  2.0

     total cpu time spent up to now is    13836.5 secs

     total energy              =    -501.68838669 Ry
     estimated scf accuracy    <       0.00000409 Ry

     iteration # 20     ecut=    80.00 Ry     beta= 0.70
     Davidson diagonalization with overlap
     ethr =  2.52E-09,  avg # of iterations =  2.4

     total cpu time spent up to now is    13878.4 secs

     total energy              =    -501.68838704 Ry
     estimated scf accuracy    <       0.00000090 Ry

     iteration # 21     ecut=    80.00 Ry     beta= 0.70
     Davidson diagonalization with overlap
     ethr =  5.55E-10,  avg # of iterations =  5.9

     total cpu time spent up to now is    13936.7 secs

     total energy              =    -501.68838714 Ry
     estimated scf accuracy    <       0.00000027 Ry

     iteration # 22     ecut=    80.00 Ry     beta= 0.70
     Davidson diagonalization with overlap
     ethr =  1.66E-10,  avg # of iterations =  7.0

     total cpu time spent up to now is    14010.2 secs

     total energy              =    -501.68838722 Ry
     estimated scf accuracy    <       0.00000008 Ry

     iteration # 23     ecut=    80.00 Ry     beta= 0.70
     Davidson diagonalization with overlap
     ethr =  5.15E-11,  avg # of iterations =  5.1

     total cpu time spent up to now is    14078.0 secs

     total energy              =    -501.68838724 Ry
     estimated scf accuracy    <       0.00000006 Ry

     iteration # 24     ecut=    80.00 Ry     beta= 0.70
     Davidson diagonalization with overlap
     ethr =  3.44E-11,  avg # of iterations =  6.0

     total cpu time spent up to now is    14140.1 secs

     total energy              =    -501.68838724 Ry
     estimated scf accuracy    <       0.00000004 Ry

     iteration # 25     ecut=    80.00 Ry     beta= 0.70
     Davidson diagonalization with overlap
     ethr =  2.47E-11,  avg # of iterations =  2.1

     total cpu time spent up to now is    14188.3 secs

     total energy              =    -501.68838724 Ry
     estimated scf accuracy    <       0.00000002 Ry

     iteration # 26     ecut=    80.00 Ry     beta= 0.70
     Davidson diagonalization with overlap
     ethr =  1.12E-11,  avg # of iterations =  6.0

     total cpu time spent up to now is    14251.2 secs

     total energy              =    -501.68838724 Ry
     estimated scf accuracy    <          6.4E-09 Ry

     iteration # 27     ecut=    80.00 Ry     beta= 0.70
     Davidson diagonalization with overlap
     ethr =  3.94E-12,  avg # of iterations =  4.5

     total cpu time spent up to now is    14317.5 secs

     total energy              =    -501.68838724 Ry
     estimated scf accuracy    <          6.2E-09 Ry

     iteration # 28     ecut=    80.00 Ry     beta= 0.70
     Davidson diagonalization with overlap
     ethr =  3.81E-12,  avg # of iterations =  2.0

     total cpu time spent up to now is    14365.6 secs

     total energy              =    -501.68838724 Ry
     estimated scf accuracy    <          4.0E-09 Ry

     iteration # 29     ecut=    80.00 Ry     beta= 0.70
     Davidson diagonalization with overlap
     ethr =  2.44E-12,  avg # of iterations =  6.8

     total cpu time spent up to now is    14437.7 secs

     total energy              =    -501.68838724 Ry
     estimated scf accuracy    <          4.6E-09 Ry

     iteration # 30     ecut=    80.00 Ry     beta= 0.70
     Davidson diagonalization with overlap
     ethr =  2.44E-12,  avg # of iterations =  2.5

     total cpu time spent up to now is    14486.5 secs

     total energy              =    -501.68838724 Ry
     estimated scf accuracy    <          2.4E-09 Ry

     iteration # 31     ecut=    80.00 Ry     beta= 0.70
     Davidson diagonalization with overlap
     ethr =  1.49E-12,  avg # of iterations =  5.8

     total cpu time spent up to now is    14540.6 secs

     End of self-consistent calculation

          k = 0.0000 0.0000 0.0000 (130055 PWs)   bands (ev):

   -15.8473 -14.5081 -14.5081 -14.5081 -14.5081 -14.5081 -14.5081 -14.4793
   -13.7242 -13.7242 -13.7242 -13.7242 -13.7242 -13.7242 -13.6131 -13.6131
   -13.2046 -13.2046  -7.0108  -6.7313  -6.7313  -6.5650  -6.5650  -6.5650
    -6.5650  -6.5650  -6.5650  -6.0781  -6.0781  -5.6280  -5.6280  -5.6280
    -5.6280  -5.6280  -5.6280  -5.5309  -5.5309  -5.2559  -5.2559  -5.2559
    -5.2559  -5.2559  -5.2559  -4.8708  -4.8708  -4.3949  -4.3949  -4.0498
    -4.0498  -4.0498  -4.0498  -4.0498  -4.0498  -3.8313  -3.8313  -3.5024
    -3.5024  -3.3565  -3.0912  -3.0912  -3.0912  -3.0911  -3.0911  -3.0911
    -2.5248  -2.5248  -2.3887  -2.3887  -2.3887  -2.3887  -2.3887  -2.3886
    -2.3365  -2.3365  -2.3365  -2.3365  -2.3365  -2.3365  -1.4901  -1.3533
    -1.3533

          k =-0.0000 0.2833 0.0000 (129977 PWs)   bands (ev):

   -15.7460 -15.0150 -14.7056 -14.7056 -14.4205 -14.2253 -14.2253 -14.0749
   -14.0034 -13.8299 -13.8299 -13.6987 -13.6987 -13.5683 -13.5683 -13.4928
   -13.2581 -13.2581  -7.0685  -6.8901  -6.7660  -6.7660  -6.6390  -6.6390
    -6.4300  -6.4300  -6.3275  -6.3275  -6.3034  -6.1435  -5.9274  -5.9274
    -5.3463  -5.3463  -5.3165  -5.2378  -5.2378  -5.2152  -5.1809  -5.1809
    -5.1291  -5.1291  -4.8105  -4.6029  -4.6029  -4.4844  -4.4844  -4.3696
    -4.3696  -4.2819  -4.2002  -4.2002  -4.1029  -3.7399  -3.7242  -3.5704
    -3.3430  -3.3430  -3.2495  -3.0677  -3.0677  -2.9010  -2.9010  -2.8431
    -2.8431  -2.8004  -2.7811  -2.7554  -2.7554  -2.6725  -2.4464  -2.1930
    -2.0922  -2.0885  -2.0885  -2.0776  -1.9621  -1.9621  -1.5155  -1.5155
    -1.5086

          k = 0.0000-0.5665 0.0000 (130074 PWs)   bands (ev):

   -15.4548 -15.4548 -14.7760 -14.7760 -14.2526 -14.2526 -13.9270 -13.9270
   -13.9270 -13.9270 -13.8986 -13.8671 -13.8671 -13.3996 -13.3963 -13.3963
   -13.3963 -13.3963  -7.2981  -6.7763  -6.7763  -6.7763  -6.7763  -6.5763
    -6.5763  -6.3331  -6.2599  -6.2599  -6.2599  -6.2599  -6.2228  -6.2228
    -5.3661  -5.2359  -5.2359  -5.1695  -5.1695  -5.1695  -5.1695  -4.9123
    -4.9123  -4.6764  -4.6764  -4.5687  -4.5687  -4.5687  -4.5687  -4.4645
    -4.4645  -4.3636  -4.1052  -4.1052  -3.6879  -3.6878  -3.6878  -3.6878
    -3.5645  -3.5645  -3.2991  -3.1593  -3.1593  -3.1068  -3.1068  -3.1068
    -3.1068  -2.9334  -2.9334  -2.5245  -2.5245  -2.4983  -2.4983  -2.0336
    -1.9904  -1.9740  -1.9740  -1.7518  -1.7518  -1.7518  -1.7518  -1.6809
    -1.6809

          k = 0.2453-0.1416 0.0000 (129977 PWs)   bands (ev):

   -15.7460 -15.0150 -14.7056 -14.7056 -14.4205 -14.2253 -14.2253 -14.0749
   -14.0034 -13.8299 -13.8299 -13.6987 -13.6987 -13.5683 -13.5683 -13.4928
   -13.2581 -13.2581  -7.0685  -6.8901  -6.7660  -6.7660  -6.6390  -6.6390
    -6.4300  -6.4300  -6.3275  -6.3275  -6.3034  -6.1435  -5.9274  -5.9274
    -5.3463  -5.3463  -5.3165  -5.2378  -5.2378  -5.2152  -5.1809  -5.1809
    -5.1291  -5.1291  -4.8105  -4.6029  -4.6029  -4.4844  -4.4844  -4.3696
    -4.3696  -4.2819  -4.2002  -4.2002  -4.1029  -3.7399  -3.7242  -3.5704
    -3.3430  -3.3430  -3.2495  -3.0677  -3.0677  -2.9010  -2.9010  -2.8432
    -2.8431  -2.8004  -2.7811  -2.7554  -2.7554  -2.6725  -2.4464  -2.1930
    -2.0922  -2.0885  -2.0885  -2.0776  -1.9621  -1.9621  -1.5155  -1.5155
    -1.5086

          k = 0.2453 0.1416 0.0000 (129977 PWs)   bands (ev):

   -15.7460 -15.0150 -14.7056 -14.7056 -14.4205 -14.2253 -14.2253 -14.0749
   -14.0034 -13.8299 -13.8299 -13.6987 -13.6987 -13.5683 -13.5683 -13.4928
   -13.2581 -13.2581  -7.0685  -6.8901  -6.7660  -6.7660  -6.6390  -6.6390
    -6.4300  -6.4300  -6.3275  -6.3275  -6.3034  -6.1435  -5.9274  -5.9274
    -5.3463  -5.3463  -5.3165  -5.2378  -5.2378  -5.2152  -5.1809  -5.1809
    -5.1291  -5.1291  -4.8105  -4.6029  -4.6029  -4.4844  -4.4844  -4.3696
    -4.3696  -4.2819  -4.2002  -4.2002  -4.1029  -3.7399  -3.7242  -3.5704
    -3.3430  -3.3430  -3.2495  -3.0677  -3.0677  -2.9010  -2.9010  -2.8432
    -2.8431  -2.8004  -2.7811  -2.7554  -2.7554  -2.6725  -2.4464  -2.1930
    -2.0922  -2.0885  -2.0885  -2.0776  -1.9621  -1.9621  -1.5155  -1.5155
    -1.5086

          k = 0.2453-0.7081 0.0000 (130016 PWs)   bands (ev):

   -15.5497 -15.1831 -15.1831 -14.3137 -14.3137 -14.3070 -14.0974 -14.0974
   -13.9363 -13.9081 -13.9081 -13.7723 -13.6093 -13.6093 -13.3986 -13.3986
   -13.3950 -13.3110  -7.1438  -7.1438  -6.9222  -6.6699  -6.5455  -6.4622
    -6.4622  -6.4527  -6.3454  -6.3454  -6.3108  -6.3108  -6.2337  -5.6939
    -5.6939  -5.3206  -5.3206  -5.2715  -5.1130  -5.1130  -5.0270  -5.0270
    -4.9580  -4.6414  -4.6091  -4.6091  -4.5022  -4.5021  -4.4499  -4.4499
    -4.4238  -4.4238  -4.2964  -3.9169  -3.8571  -3.8571  -3.6903  -3.6137
    -3.5397  -3.5397  -3.2825  -3.2559  -3.2559  -3.0482  -3.0482  -3.0195
    -3.0022  -2.7507  -2.7507  -2.7244  -2.7244  -2.4513  -2.4513  -2.3475
    -1.9594  -1.9594  -1.8543  -1.8543  -1.7889  -1.7465  -1.7465  -1.5940
    -1.5917

          k = 0.2453-0.4249 0.0000 (130016 PWs)   bands (ev):

   -15.5497 -15.1831 -15.1831 -14.3137 -14.3137 -14.3070 -14.0974 -14.0974
   -13.9363 -13.9081 -13.9081 -13.7723 -13.6093 -13.6093 -13.3986 -13.3986
   -13.3950 -13.3110  -7.1438  -7.1438  -6.9222  -6.6699  -6.5455  -6.4622
    -6.4622  -6.4527  -6.3454  -6.3454  -6.3108  -6.3108  -6.2337  -5.6939
    -5.6939  -5.3206  -5.3206  -5.2715  -5.1130  -5.1130  -5.0270  -5.0270
    -4.9580  -4.6414  -4.6091  -4.6091  -4.5022  -4.5021  -4.4499  -4.4499
    -4.4238  -4.4238  -4.2964  -3.9169  -3.8571  -3.8571  -3.6903  -3.6137
    -3.5397  -3.5397  -3.2825  -3.2559  -3.2559  -3.0482  -3.0482  -3.0195
    -3.0022  -2.7507  -2.7507  -2.7244  -2.7244  -2.4513  -2.4513  -2.3475
    -1.9594  -1.9594  -1.8543  -1.8543  -1.7889  -1.7465  -1.7465  -1.5940
    -1.5917

          k =-0.4906 0.2833 0.0000 (130074 PWs)   bands (ev):

   -15.4548 -15.4548 -14.7760 -14.7759 -14.2526 -14.2526 -13.9270 -13.9270
   -13.9270 -13.9270 -13.8986 -13.8671 -13.8671 -13.3996 -13.3963 -13.3963
   -13.3963 -13.3963  -7.2981  -6.7763  -6.7763  -6.7763  -6.7763  -6.5763
    -6.5763  -6.3331  -6.2599  -6.2599  -6.2599  -6.2599  -6.2228  -6.2228
    -5.3661  -5.2359  -5.2359  -5.1695  -5.1695  -5.1695  -5.1695  -4.9123
    -4.9123  -4.6764  -4.6764  -4.5687  -4.5687  -4.5687  -4.5687  -4.4645
    -4.4645  -4.3636  -4.1052  -4.1052  -3.6879  -3.6879  -3.6878  -3.6878
    -3.5645  -3.5645  -3.2991  -3.1593  -3.1593  -3.1068  -3.1068  -3.1068
    -3.1068  -2.9334  -2.9334  -2.5245  -2.5245  -2.4983  -2.4983  -2.0336
    -1.9904  -1.9740  -1.9740  -1.7518  -1.7518  -1.7518  -1.7518  -1.6809
    -1.6809

          k =-0.4906 0.5665 0.0000 (130016 PWs)   bands (ev):

   -15.5497 -15.1831 -15.1831 -14.3137 -14.3137 -14.3070 -14.0974 -14.0974
   -13.9363 -13.9081 -13.9081 -13.7723 -13.6093 -13.6093 -13.3986 -13.3986
   -13.3950 -13.3110  -7.1438  -7.1438  -6.9222  -6.6699  -6.5455  -6.4622
    -6.4622  -6.4527  -6.3454  -6.3454  -6.3108  -6.3108  -6.2337  -5.6939
    -5.6939  -5.3206  -5.3206  -5.2715  -5.1130  -5.1130  -5.0270  -5.0270
    -4.9580  -4.6414  -4.6091  -4.6091  -4.5022  -4.5021  -4.4499  -4.4499
    -4.4238  -4.4238  -4.2964  -3.9169  -3.8571  -3.8571  -3.6904  -3.6137
    -3.5397  -3.5397  -3.2825  -3.2559  -3.2559  -3.0482  -3.0482  -3.0195
    -3.0022  -2.7507  -2.7507  -2.7244  -2.7244  -2.4513  -2.4513  -2.3475
    -1.9594  -1.9594  -1.8543  -1.8543  -1.7889  -1.7465  -1.7465  -1.5940
    -1.5917

          k =-0.4906-0.2833 0.0000 (130074 PWs)   bands (ev):

   -15.4548 -15.4548 -14.7760 -14.7759 -14.2526 -14.2526 -13.9270 -13.9270
   -13.9270 -13.9270 -13.8986 -13.8671 -13.8671 -13.3996 -13.3963 -13.3963
   -13.3963 -13.3963  -7.2981  -6.7763  -6.7763  -6.7763  -6.7763  -6.5763
    -6.5763  -6.3331  -6.2599  -6.2599  -6.2599  -6.2599  -6.2228  -6.2228
    -5.3661  -5.2359  -5.2359  -5.1695  -5.1695  -5.1695  -5.1695  -4.9123
    -4.9123  -4.6764  -4.6764  -4.5687  -4.5687  -4.5687  -4.5687  -4.4645
    -4.4645  -4.3636  -4.1052  -4.1052  -3.6879  -3.6879  -3.6878  -3.6878
    -3.5645  -3.5645  -3.2991  -3.1593  -3.1593  -3.1068  -3.1068  -3.1068
    -3.1068  -2.9334  -2.9334  -2.5245  -2.5245  -2.4983  -2.4983  -2.0336
    -1.9904  -1.9740  -1.9740  -1.7518  -1.7518  -1.7518  -1.7518  -1.6809
    -1.6809

     highest occupied level (ev):    -1.3533

!    total energy              =    -501.68838724 Ry
     estimated scf accuracy    <          3.7E-10 Ry

     The total energy is the sum of the following terms:
     one-electron contribution =   -4001.40977847 Ry
     hartree contribution      =    2037.96398458 Ry
     xc contribution           =    -115.45353929 Ry
     ewald contribution        =    1577.21094594 Ry

     convergence has been achieved in  31 iterations

     Forces acting on atoms (cartesian axes, Ry/au):

     atom    1 type  3   force =    -0.00000091    0.00000005    0.00001112
     atom    2 type  1   force =     0.00000037   -0.00000268   -0.00000524
     atom    3 type  2   force =     0.00000001   -0.00000281   -0.00000590
     atom    4 type  3   force =    -0.00000203    0.00000272    0.00001113
     atom    5 type  1   force =     0.00000109   -0.00000177   -0.00000794
     atom    6 type  2   force =     0.00000105   -0.00000210   -0.00000393
     atom    7 type  3   force =     0.00000274    0.00000208    0.00001114
     atom    8 type  1   force =    -0.00000162   -0.00000334   -0.00000559
     atom    9 type  2   force =    -0.00000123   -0.00000336   -0.00000503
     atom   10 type  3   force =     0.00000066   -0.00000042    0.00001178
     atom   11 type  1   force =     0.00000110    0.00000202   -0.00000538
     atom   12 type  2   force =     0.00000105    0.00000231   -0.00000635
     atom   13 type  3   force =     0.00000058    0.00000128    0.00001225
     atom   14 type  1   force =    -0.00000140   -0.00000014   -0.00000429
     atom   15 type  2   force =    -0.00000113    0.00000038   -0.00000796
     atom   16 type  3   force =    -0.00000059   -0.00000127    0.00001100
     atom   17 type  1   force =     0.00000011    0.00000086   -0.00000288
     atom   18 type  2   force =     0.00000005    0.00000130   -0.00000893
     atom   19 type  3   force =     0.00000140   -0.00000016    0.00001176
     atom   20 type  1   force =    -0.00000185    0.00000073   -0.00000527
     atom   21 type  2   force =    -0.00000161    0.00000083   -0.00000532
     atom   22 type  3   force =    -0.00000294   -0.00000122    0.00001112
     atom   23 type  1   force =    -0.00000036    0.00000204   -0.00000468
     atom   24 type  2   force =     0.00000006    0.00000180   -0.00000724
     atom   25 type  3   force =     0.00000190   -0.00000321    0.00001128
     atom   26 type  1   force =     0.00000201    0.00000225   -0.00000631
     atom   27 type  2   force =     0.00000149    0.00000183   -0.00000433

     Total force =     0.000044     Total SCF correction =     0.000036
     SCF correction compared to forces is large: reduce conv_thr to get better values


     Computing stress (Cartesian axis) and pressure

          total   stress  (Ry/bohr**3)                   (kbar)     P=       -0.04
   0.00000093   0.00000000  -0.00000000            0.14        0.00       -0.00
   0.00000000   0.00000093   0.00000000            0.00        0.14        0.00
  -0.00000000   0.00000000  -0.00000266           -0.00        0.00       -0.39


     Writing all to output data dir /scratch/asgouros/train_MoSSe_defT_3x3//ref/ref.save/ :
     XML data file, charge density, pseudopotentials, collected wavefunctions

     init_run     :     99.76s CPU    105.57s WALL (       2 calls)
     electrons    :  12266.62s CPU  12730.12s WALL (      12 calls)
     update_pot   :      1.38s CPU      1.48s WALL (      10 calls)
     forces       :     70.34s CPU     71.41s WALL (      12 calls)
     stress       :   1758.89s CPU   1787.13s WALL (      12 calls)

     Called by init_run:
     wfcinit      :     98.27s CPU    104.01s WALL (       2 calls)
     potinit      :      0.16s CPU      0.19s WALL (       2 calls)
     hinit0       :      0.59s CPU      0.62s WALL (       2 calls)

     Called by electrons:
     c_bands      :  10809.83s CPU  11227.05s WALL (     184 calls)
     sum_band     :   1432.68s CPU   1474.91s WALL (     184 calls)
     v_of_rho     :      7.51s CPU      7.91s WALL (     191 calls)
     mix_rho      :     14.85s CPU     17.73s WALL (     184 calls)

     Called by c_bands:
     init_us_2    :    249.91s CPU    251.59s WALL (    3940 calls)
     cegterg      :  10360.18s CPU  10769.91s WALL (    1840 calls)

     Called by *egterg:
     cdiaghg      :     92.42s CPU     92.57s WALL (   11304 calls)
     h_psi        :   8923.45s CPU   9273.88s WALL (   11474 calls)
     g_psi        :     35.40s CPU     35.50s WALL (    9614 calls)

     Called by h_psi:
     h_psi:calbec :    665.36s CPU    674.25s WALL (   11474 calls)
     vloc_psi     :   7585.95s CPU   7885.30s WALL (   11474 calls)
     add_vuspsi   :    616.38s CPU    617.51s WALL (   11474 calls)

     General routines
     calbec       :    730.17s CPU    739.28s WALL (   12074 calls)
     fft          :      7.68s CPU      8.47s WALL (     636 calls)
     ffts         :      2.32s CPU      2.68s WALL (     184 calls)
     fftw         :   6464.52s CPU   6716.43s WALL ( 1174446 calls)

     Parallel routines

     PWSCF        :      3h56m CPU      4h 4m WALL


   This run was terminated on:  16:34:37  10Jun2025            

=------------------------------------------------------------------------------=
   JOB DONE.
=------------------------------------------------------------------------------=
