
     Program PWSCF v.7.3.1 starts on 10Jun2025 at 23:37:51 

     This program is part of the open-source Quantum ESPRESSO suite
     for quantum simulation of materials; please cite
         "P. Giannozzi et al., J. Phys.:Condens. Matter 21 395502 (2009);
         "P. Giannozzi et al., J. Phys.:Condens. Matter 29 465901 (2017);
         "P. Giannozzi et al., J. Chem. Phys. 152 154105 (2020);
          URL http://www.quantum-espresso.org", 
     in publications or presentations arising from this work. More details at
     http://www.quantum-espresso.org/quote

     Parallel version (MPI), running on     7 processors

     MPI processes distributed on     1 nodes
     55007 MiB available memory on the printing compute node when the environment starts

     Waiting for input...
     Reading input from standard input

     Current dimensions of program PWSCF are:
     Max number of different atomic species (ntypx) = 10
     Max number of k-points (npk) =  40000
     Max angular momentum in pseudopotentials (lmaxx) =  4

     R & G space division:  proc/nbgrp/npool/nimage =       7
     Subspace diagonalization in iterative solution of the eigenvalue problem:
     a serial algorithm will be used


     Parallelization info
     --------------------
     sticks:   dense  smooth     PW     G-vecs:    dense   smooth      PW
     Min        1036    1036    274               148590   148590   20271
     Max        1037    1037    275               148595   148595   20276
     Sum        7255    7255   1921              1040141  1040141  141915

     Using Slab Decomposition



     bravais-lattice index     =            0
     lattice parameter (alat)  =      18.1303  a.u.
     unit-cell volume          =   10758.9143 (a.u.)^3
     number of atoms/cell      =           27
     number of atomic types    =            3
     number of electrons       =       162.00
     number of Kohn-Sham states=           81
     kinetic-energy cutoff     =      80.0000  Ry
     charge density cutoff     =     320.0000  Ry
     scf convergence threshold =      1.0E-07
     mixing beta               =       0.7000
     number of iterations used =            8  plain     mixing
     Exchange-correlation= SLA-PZ-NOGX-NOGC
                           (   1   1   0   0   0   0   0)

     celldm(1)=  18.130293  celldm(2)=   0.000000  celldm(3)=   0.000000
     celldm(4)=   0.000000  celldm(5)=   0.000000  celldm(6)=   0.000000

     crystal axes: (cart. coord. in units of alat)
               a(1) = (   1.000000   0.000000   0.000000 )  
               a(2) = (   0.500000   0.866025   0.000000 )  
               a(3) = (   0.000000   0.000000   2.084604 )  

     reciprocal axes: (cart. coord. in units 2 pi/alat)
               b(1) = (  1.000000 -0.577351  0.000000 )  
               b(2) = (  0.000000  1.154701  0.000000 )  
               b(3) = (  0.000000  0.000000  0.479707 )  


     PseudoPot. # 1 for S  read from file:
     /cyclonas_users/asgouros/projects/PhononQE/qe_psextra/S.pz-hgh.UPF
     MD5 check sum: 38f9f902ee430b58f9df3cf2bf519617
     Pseudo is Norm-conserving, Zval =  6.0
     Generated in analytical, separable form
     Using radial grid of 1151 points,  3 beta functions with: 
                l(1) =   0
                l(2) =   0
                l(3) =   1

     PseudoPot. # 2 for Se read from file:
     /cyclonas_users/asgouros/projects/PhononQE/qe_psextra/Se.pz-hgh.UPF
     MD5 check sum: 42473bb8e8306ed0aaaa7d778fab00e5
     Pseudo is Norm-conserving, Zval =  6.0
     Generated in analytical, separable form
     Using radial grid of 1211 points,  6 beta functions with: 
                l(1) =   0
                l(2) =   0
                l(3) =   0
                l(4) =   1
                l(5) =   1
                l(6) =   2

     PseudoPot. # 3 for Mo read from file:
     /cyclonas_users/asgouros/projects/PhononQE/qe_psextra/Mo.pz-hgh.UPF
     MD5 check sum: ddacfae2313397baf1b67b06fa6affd0
     Pseudo is Norm-conserving, Zval =  6.0
     Generated in analytical, separable form
     Using radial grid of 1229 points,  6 beta functions with: 
                l(1) =   0
                l(2) =   0
                l(3) =   1
                l(4) =   1
                l(5) =   2
                l(6) =   2

     atomic species   valence    mass     pseudopotential
     S                 6.00    32.07000     S ( 1.00)
     Se                6.00    78.96000     Se( 1.00)
     Mo                6.00    95.94000     Mo( 1.00)

     No symmetry found



   Cartesian axes

     site n.     atom                  positions (alat units)
         1        Mo     tau(   1) = (   0.0025516  -0.0093313  -0.0009677  )
         2        S      tau(   2) = (   0.1647031   0.0903767   0.1748086  )
         3        Se     tau(   3) = (   0.1680363   0.0892845  -0.1642565  )
         4        Mo     tau(   4) = (   0.3251183   0.0036484  -0.0018858  )
         5        S      tau(   5) = (   0.5086563   0.1067486   0.1611373  )
         6        Se     tau(   6) = (   0.4914768   0.0999633  -0.1795907  )
         7        Mo     tau(   7) = (   0.6703608  -0.0020567   0.0051432  )
         8        S      tau(   8) = (   0.8419415   0.0947991   0.1734273  )
         9        Se     tau(   9) = (   0.8425292   0.1068911  -0.1684940  )
        10        Mo     tau(  10) = (   0.1585684   0.2987133  -0.0025954  )
        11        S      tau(  11) = (   0.3268329   0.3753400   0.1607793  )
        12        Se     tau(  12) = (   0.3311994   0.3753831  -0.1776475  )
        13        Mo     tau(  13) = (   0.4908058   0.2789818   0.0137631  )
        14        S      tau(  14) = (   0.6731078   0.3906940   0.1701940  )
        15        Se     tau(  15) = (   0.6680801   0.3886574  -0.1657916  )
        16        Mo     tau(  16) = (   0.8245316   0.2796347   0.0152778  )
        17        S      tau(  17) = (   0.9957616   0.3891801   0.1750818  )
        18        Se     tau(  18) = (   1.0096014   0.3750114  -0.1766293  )
        19        Mo     tau(  19) = (   0.3236928   0.5769917  -0.0015947  )
        20        S      tau(  20) = (   0.4931705   0.6711065   0.1684067  )
        21        Se     tau(  21) = (   0.4947064   0.6660633  -0.1645393  )
        22        Mo     tau(  22) = (   0.6574156   0.5712866  -0.0047546  )
        23        S      tau(  23) = (   0.8294003   0.6795225   0.1743691  )
        24        Se     tau(  24) = (   0.8406293   0.6648441  -0.1705021  )
        25        Mo     tau(  25) = (   0.9942986   0.5730661   0.0103418  )
        26        S      tau(  26) = (   1.1651689   0.6737194   0.1555560  )
        27        Se     tau(  27) = (   1.1709374   0.6810397  -0.1794875  )

     number of k points=    10
                       cart. coord. in units 2pi/alat
        k(    1) = (   0.0000000   0.0000000   0.0000000), wk =   0.1250000
        k(    2) = (   0.0000000   0.2886753   0.0000000), wk =   0.2500000
        k(    3) = (   0.0000000  -0.5773505   0.0000000), wk =   0.1250000
        k(    4) = (   0.2500000  -0.7216882   0.0000000), wk =   0.2500000
        k(    5) = (  -0.2500000   0.1443376   0.0000000), wk =   0.2500000
        k(    6) = (   0.2500000   0.1443376   0.0000000), wk =   0.2500000
        k(    7) = (   0.5000000  -0.2886753   0.0000000), wk =   0.1250000
        k(    8) = (  -0.5000000  -0.2886753   0.0000000), wk =   0.1250000
        k(    9) = (  -0.2500000  -0.7216882   0.0000000), wk =   0.2500000
        k(   10) = (  -0.5000000  -0.5773505   0.0000000), wk =   0.2500000

     Dense  grid:  1040141 G-vectors     FFT dimensions: ( 108, 108, 216)

     Estimated max dynamical RAM per process >     585.91 MB

     Estimated total dynamical RAM >       4.01 GB

     Initial potential from superposition of free atoms

     starting charge     143.9937, renormalised to     162.0000

     negative rho (up, down):  1.746E-05 0.000E+00
     Starting wfcs are  243 randomized atomic wfcs

     total cpu time spent up to now is       95.5 secs

     Self-consistent Calculation

     iteration #  1     ecut=    80.00 Ry     beta= 0.70
     Davidson diagonalization with overlap
     ethr =  1.00E-02,  avg # of iterations =  2.0

     total cpu time spent up to now is      210.1 secs

     total energy              =    -492.91977830 Ry
     estimated scf accuracy    <      12.79878096 Ry

     iteration #  2     ecut=    80.00 Ry     beta= 0.70
     Davidson diagonalization with overlap
     ethr =  7.90E-03,  avg # of iterations = 12.4

     total cpu time spent up to now is      522.9 secs

     total energy              =    -486.15442929 Ry
     estimated scf accuracy    <     143.88515069 Ry

     iteration #  3     ecut=    80.00 Ry     beta= 0.70
     Davidson diagonalization with overlap
     ethr =  7.90E-03,  avg # of iterations =  7.0

     total cpu time spent up to now is      731.6 secs

     total energy              =    -500.00971354 Ry
     estimated scf accuracy    <       2.74677422 Ry

     iteration #  4     ecut=    80.00 Ry     beta= 0.70
     Davidson diagonalization with overlap
     ethr =  1.70E-03,  avg # of iterations =  7.0

     total cpu time spent up to now is      928.8 secs

     total energy              =    -501.39994421 Ry
     estimated scf accuracy    <       1.30138932 Ry

     iteration #  5     ecut=    80.00 Ry     beta= 0.70
     Davidson diagonalization with overlap
     ethr =  8.03E-04,  avg # of iterations =  3.5

     total cpu time spent up to now is     1063.0 secs

     total energy              =    -501.33287322 Ry
     estimated scf accuracy    <       0.95753977 Ry

     iteration #  6     ecut=    80.00 Ry     beta= 0.70
     Davidson diagonalization with overlap
     ethr =  5.91E-04,  avg # of iterations =  2.1

     total cpu time spent up to now is     1186.4 secs

     total energy              =    -501.36153455 Ry
     estimated scf accuracy    <       0.25281252 Ry

     iteration #  7     ecut=    80.00 Ry     beta= 0.70
     Davidson diagonalization with overlap
     ethr =  1.56E-04,  avg # of iterations =  6.3

     total cpu time spent up to now is     1382.2 secs

     total energy              =    -501.47069481 Ry
     estimated scf accuracy    <       0.28095733 Ry

     iteration #  8     ecut=    80.00 Ry     beta= 0.70
     Davidson diagonalization with overlap
     ethr =  1.56E-04,  avg # of iterations =  1.1

     total cpu time spent up to now is     1486.7 secs

     total energy              =    -501.44740877 Ry
     estimated scf accuracy    <       0.23690736 Ry

     iteration #  9     ecut=    80.00 Ry     beta= 0.70
     Davidson diagonalization with overlap
     ethr =  1.46E-04,  avg # of iterations =  1.3

     total cpu time spent up to now is     1595.1 secs

     total energy              =    -501.42088074 Ry
     estimated scf accuracy    <       0.13375017 Ry

     iteration # 10     ecut=    80.00 Ry     beta= 0.70
     Davidson diagonalization with overlap
     ethr =  8.26E-05,  avg # of iterations =  5.8

     total cpu time spent up to now is     1755.4 secs

     total energy              =    -501.45045325 Ry
     estimated scf accuracy    <       0.01799139 Ry

     iteration # 11     ecut=    80.00 Ry     beta= 0.70
     Davidson diagonalization with overlap
     ethr =  1.11E-05,  avg # of iterations =  4.5

     total cpu time spent up to now is     1853.4 secs

     total energy              =    -501.45213036 Ry
     estimated scf accuracy    <       0.00835621 Ry

     iteration # 12     ecut=    80.00 Ry     beta= 0.70
     Davidson diagonalization with overlap
     ethr =  5.16E-06,  avg # of iterations =  4.6

     total cpu time spent up to now is     1933.5 secs

     total energy              =    -501.45199947 Ry
     estimated scf accuracy    <       0.00298155 Ry

     iteration # 13     ecut=    80.00 Ry     beta= 0.70
     Davidson diagonalization with overlap
     ethr =  1.84E-06,  avg # of iterations =  7.9

     total cpu time spent up to now is     2059.0 secs

     total energy              =    -501.45317524 Ry
     estimated scf accuracy    <       0.01018074 Ry

     iteration # 14     ecut=    80.00 Ry     beta= 0.70
     Davidson diagonalization with overlap
     ethr =  1.84E-06,  avg # of iterations =  6.0

     total cpu time spent up to now is     2142.7 secs

     total energy              =    -501.45325239 Ry
     estimated scf accuracy    <       0.00363788 Ry

     iteration # 15     ecut=    80.00 Ry     beta= 0.70
     Davidson diagonalization with overlap
     ethr =  1.84E-06,  avg # of iterations =  2.2

     total cpu time spent up to now is     2211.6 secs

     total energy              =    -501.45313270 Ry
     estimated scf accuracy    <       0.00172648 Ry

     iteration # 16     ecut=    80.00 Ry     beta= 0.70
     Davidson diagonalization with overlap
     ethr =  1.07E-06,  avg # of iterations =  6.0

     total cpu time spent up to now is     2304.2 secs

     total energy              =    -501.45356261 Ry
     estimated scf accuracy    <       0.00026970 Ry

     iteration # 17     ecut=    80.00 Ry     beta= 0.70
     Davidson diagonalization with overlap
     ethr =  1.66E-07,  avg # of iterations =  5.0

     total cpu time spent up to now is     2392.9 secs

     total energy              =    -501.45356276 Ry
     estimated scf accuracy    <       0.00046831 Ry

     iteration # 18     ecut=    80.00 Ry     beta= 0.70
     Davidson diagonalization with overlap
     ethr =  1.66E-07,  avg # of iterations =  2.4

     total cpu time spent up to now is     2464.1 secs

     total energy              =    -501.45354588 Ry
     estimated scf accuracy    <       0.00023628 Ry

     iteration # 19     ecut=    80.00 Ry     beta= 0.70
     Davidson diagonalization with overlap
     ethr =  1.46E-07,  avg # of iterations =  5.8

     total cpu time spent up to now is     2541.8 secs

     total energy              =    -501.45353850 Ry
     estimated scf accuracy    <       0.00006953 Ry

     iteration # 20     ecut=    80.00 Ry     beta= 0.70
     Davidson diagonalization with overlap
     ethr =  4.29E-08,  avg # of iterations = 10.5

     total cpu time spent up to now is     2683.1 secs

     total energy              =    -501.45360645 Ry
     estimated scf accuracy    <       0.00032599 Ry

     iteration # 21     ecut=    80.00 Ry     beta= 0.70
     Davidson diagonalization with overlap
     ethr =  4.29E-08,  avg # of iterations =  1.0

     total cpu time spent up to now is     2747.1 secs

     total energy              =    -501.45357372 Ry
     estimated scf accuracy    <       0.00030824 Ry

     iteration # 22     ecut=    80.00 Ry     beta= 0.70
     Davidson diagonalization with overlap
     ethr =  4.29E-08,  avg # of iterations =  3.4

     total cpu time spent up to now is     2821.9 secs

     total energy              =    -501.45357098 Ry
     estimated scf accuracy    <       0.00014805 Ry

     iteration # 23     ecut=    80.00 Ry     beta= 0.70
     Davidson diagonalization with overlap
     ethr =  4.29E-08,  avg # of iterations =  2.0

     total cpu time spent up to now is     2890.3 secs

     total energy              =    -501.45356924 Ry
     estimated scf accuracy    <       0.00009691 Ry

     iteration # 24     ecut=    80.00 Ry     beta= 0.70
     Davidson diagonalization with overlap
     ethr =  4.29E-08,  avg # of iterations =  1.8

     total cpu time spent up to now is     2956.6 secs

     total energy              =    -501.45355006 Ry
     estimated scf accuracy    <       0.00007049 Ry

     iteration # 25     ecut=    80.00 Ry     beta= 0.70
     Davidson diagonalization with overlap
     ethr =  4.29E-08,  avg # of iterations =  7.7

     total cpu time spent up to now is     3072.1 secs

     total energy              =    -501.45357989 Ry
     estimated scf accuracy    <       0.00011652 Ry

     iteration # 26     ecut=    80.00 Ry     beta= 0.70
     Davidson diagonalization with overlap
     ethr =  4.29E-08,  avg # of iterations =  1.2

     total cpu time spent up to now is     3136.9 secs

     total energy              =    -501.45357331 Ry
     estimated scf accuracy    <       0.00008472 Ry

     iteration # 27     ecut=    80.00 Ry     beta= 0.70
     Davidson diagonalization with overlap
     ethr =  4.29E-08,  avg # of iterations =  2.1

     total cpu time spent up to now is     3206.3 secs

     total energy              =    -501.45356862 Ry
     estimated scf accuracy    <       0.00004566 Ry

     iteration # 28     ecut=    80.00 Ry     beta= 0.70
     Davidson diagonalization with overlap
     ethr =  2.82E-08,  avg # of iterations =  6.4

     total cpu time spent up to now is     3290.4 secs

     total energy              =    -501.45357624 Ry
     estimated scf accuracy    <       0.00000291 Ry

     iteration # 29     ecut=    80.00 Ry     beta= 0.70
     Davidson diagonalization with overlap
     ethr =  1.79E-09,  avg # of iterations =  7.2

     total cpu time spent up to now is     3400.1 secs

     total energy              =    -501.45357736 Ry
     estimated scf accuracy    <       0.00000507 Ry

     iteration # 30     ecut=    80.00 Ry     beta= 0.70
     Davidson diagonalization with overlap
     ethr =  1.79E-09,  avg # of iterations =  1.0

     total cpu time spent up to now is     3464.6 secs

     total energy              =    -501.45357596 Ry
     estimated scf accuracy    <       0.00000418 Ry

     iteration # 31     ecut=    80.00 Ry     beta= 0.70
     Davidson diagonalization with overlap
     ethr =  1.79E-09,  avg # of iterations =  7.6

     total cpu time spent up to now is     3576.4 secs

     total energy              =    -501.45357743 Ry
     estimated scf accuracy    <       0.00000462 Ry

     iteration # 32     ecut=    80.00 Ry     beta= 0.70
     Davidson diagonalization with overlap
     ethr =  1.79E-09,  avg # of iterations =  1.0

     total cpu time spent up to now is     3641.0 secs

     total energy              =    -501.45357737 Ry
     estimated scf accuracy    <       0.00000392 Ry

     iteration # 33     ecut=    80.00 Ry     beta= 0.70
     Davidson diagonalization with overlap
     ethr =  1.79E-09,  avg # of iterations =  1.0

     total cpu time spent up to now is     3704.9 secs

     total energy              =    -501.45357714 Ry
     estimated scf accuracy    <       0.00000355 Ry

     iteration # 34     ecut=    80.00 Ry     beta= 0.70
     Davidson diagonalization with overlap
     ethr =  1.79E-09,  avg # of iterations =  1.1

     total cpu time spent up to now is     3769.2 secs

     total energy              =    -501.45357686 Ry
     estimated scf accuracy    <       0.00000251 Ry

     iteration # 35     ecut=    80.00 Ry     beta= 0.70
     Davidson diagonalization with overlap
     ethr =  1.55E-09,  avg # of iterations =  5.5

     total cpu time spent up to now is     3843.9 secs

     total energy              =    -501.45357700 Ry
     estimated scf accuracy    <       0.00000070 Ry

     iteration # 36     ecut=    80.00 Ry     beta= 0.70
     Davidson diagonalization with overlap
     ethr =  4.29E-10,  avg # of iterations =  6.1

     total cpu time spent up to now is     3928.2 secs

     total energy              =    -501.45357713 Ry
     estimated scf accuracy    <       0.00000011 Ry

     iteration # 37     ecut=    80.00 Ry     beta= 0.70
     Davidson diagonalization with overlap
     ethr =  6.48E-11,  avg # of iterations =  5.1

     total cpu time spent up to now is     4014.9 secs

     total energy              =    -501.45357714 Ry
     estimated scf accuracy    <       0.00000011 Ry

     iteration # 38     ecut=    80.00 Ry     beta= 0.70
     Davidson diagonalization with overlap
     ethr =  6.48E-11,  avg # of iterations =  5.8

     total cpu time spent up to now is     4099.1 secs

     total energy              =    -501.45357716 Ry
     estimated scf accuracy    <       0.00000011 Ry

     iteration # 39     ecut=    80.00 Ry     beta= 0.70
     Davidson diagonalization with overlap
     ethr =  6.48E-11,  avg # of iterations =  1.3

     total cpu time spent up to now is     4164.8 secs

     total energy              =    -501.45357715 Ry
     estimated scf accuracy    <       0.00000012 Ry

     iteration # 40     ecut=    80.00 Ry     beta= 0.70
     Davidson diagonalization with overlap
     ethr =  6.48E-11,  avg # of iterations =  6.1

     total cpu time spent up to now is     4258.8 secs

     total energy              =    -501.45357714 Ry
     estimated scf accuracy    <       0.00000019 Ry

     iteration # 41     ecut=    80.00 Ry     beta= 0.70
     Davidson diagonalization with overlap
     ethr =  6.48E-11,  avg # of iterations =  3.3

     total cpu time spent up to now is     4331.1 secs

     End of self-consistent calculation

          k = 0.0000 0.0000 0.0000 (130055 PWs)   bands (ev):

   -15.8427 -14.7232 -14.5799 -14.5589 -14.4864 -14.4428 -14.4287 -14.3274
   -13.8439 -13.7693 -13.7000 -13.6749 -13.6209 -13.5931 -13.5411 -13.4787
   -13.1113 -12.9844  -6.9842  -6.8073  -6.7209  -6.6159  -6.5651  -6.4859
    -6.4802  -6.4390  -6.3537  -6.1189  -6.0875  -5.7423  -5.7126  -5.6746
    -5.6150  -5.5765  -5.5515  -5.5292  -5.3588  -5.3223  -5.2362  -5.2119
    -5.1797  -5.1604  -5.0936  -4.8179  -4.7684  -4.4586  -4.3941  -4.3023
    -4.0936  -4.0198  -3.9324  -3.8839  -3.7648  -3.6693  -3.5976  -3.5458
    -3.4765  -3.3954  -3.2420  -3.2102  -3.1179  -3.0636  -3.0217  -3.0129
    -2.8538  -2.6771  -2.6171  -2.5605  -2.5547  -2.4088  -2.3346  -2.2644
    -2.2313  -2.0681  -2.0466  -2.0156  -1.9170  -1.8152  -1.5423  -1.2803
    -1.1609

          k = 0.0000 0.2887 0.0000 (129973 PWs)   bands (ev):

   -15.7451 -15.0487 -14.7245 -14.6828 -14.4100 -14.2957 -14.2263 -14.0379
   -14.0016 -13.8174 -13.7760 -13.6967 -13.6322 -13.5808 -13.4494 -13.3744
   -13.1557 -13.0207  -7.0813  -6.8742  -6.7792  -6.7577  -6.6345  -6.5631
    -6.4287  -6.3362  -6.3065  -6.2592  -6.1667  -6.0581  -5.9382  -5.8245
    -5.4249  -5.3674  -5.3222  -5.2773  -5.2441  -5.2131  -5.1615  -5.1139
    -5.0724  -5.0318  -4.8386  -4.6740  -4.5666  -4.5120  -4.4529  -4.3967
    -4.2891  -4.2610  -4.1021  -4.0211  -3.8557  -3.6987  -3.6065  -3.5161
    -3.4198  -3.3290  -3.2683  -3.1614  -3.1477  -2.9656  -2.9429  -2.8895
    -2.8307  -2.7607  -2.7165  -2.6629  -2.6306  -2.4446  -2.3615  -2.2549
    -2.2261  -2.0754  -1.9563  -1.8192  -1.7942  -1.7000  -1.5655  -1.3734
    -1.2824

          k = 0.0000-0.5774 0.0000 (130074 PWs)   bands (ev):

   -15.5049 -15.4176 -14.7931 -14.7534 -14.2745 -14.2091 -14.1120 -14.0541
   -13.8968 -13.8393 -13.8156 -13.7863 -13.7391 -13.5208 -13.3293 -13.2918
   -13.2445 -13.0611  -7.3061  -6.8516  -6.8202  -6.7430  -6.6468  -6.5460
    -6.5189  -6.3625  -6.2815  -6.2324  -6.1898  -6.1586  -6.0628  -6.0152
    -5.3516  -5.2619  -5.2563  -5.2165  -5.1756  -5.1434  -5.1283  -5.0096
    -4.8843  -4.7866  -4.7281  -4.6782  -4.5855  -4.4673  -4.4019  -4.3520
    -4.2821  -4.2617  -4.1384  -4.0853  -3.8521  -3.6749  -3.6082  -3.4804
    -3.4264  -3.3864  -3.3601  -3.2200  -3.1883  -3.1479  -3.1006  -3.0613
    -2.9734  -2.8315  -2.7481  -2.5514  -2.5002  -2.4196  -2.2889  -2.1950
    -2.1304  -1.8827  -1.8591  -1.7792  -1.7316  -1.6881  -1.5864  -1.4088
    -1.4035

          k = 0.2500-0.7217 0.0000 (130016 PWs)   bands (ev):

   -15.5601 -15.2647 -15.0942 -14.3816 -14.3156 -14.2637 -14.1154 -14.0966
   -14.0194 -13.8614 -13.8134 -13.7303 -13.6099 -13.5717 -13.3937 -13.2706
   -13.2271 -13.0535  -7.1639  -7.0852  -6.9560  -6.6608  -6.5454  -6.4978
    -6.4213  -6.3865  -6.3551  -6.3057  -6.2541  -6.1754  -6.1308  -5.7266
    -5.5792  -5.3680  -5.2695  -5.2202  -5.0834  -5.0585  -4.9612  -4.9121
    -4.8940  -4.7626  -4.6997  -4.6162  -4.5645  -4.5325  -4.4296  -4.3752
    -4.2813  -4.2257  -4.1729  -4.0030  -3.8361  -3.7267  -3.6528  -3.5820
    -3.5443  -3.4308  -3.3622  -3.2629  -3.1890  -3.1376  -3.0249  -2.9432
    -2.8785  -2.8271  -2.7702  -2.6827  -2.6101  -2.3945  -2.3379  -2.2124
    -2.0848  -2.0027  -1.8922  -1.7866  -1.7376  -1.6196  -1.5553  -1.4259
    -1.2998

          k =-0.2500 0.1443 0.0000 (129973 PWs)   bands (ev):

   -15.7457 -15.0151 -14.8126 -14.6483 -14.4138 -14.2877 -14.1733 -14.0669
   -14.0029 -13.8210 -13.7753 -13.7048 -13.6340 -13.5709 -13.4419 -13.3818
   -13.1604 -13.0197  -7.0803  -6.8530  -6.8068  -6.7389  -6.6610  -6.5763
    -6.4160  -6.3230  -6.2684  -6.2496  -6.1840  -6.0664  -5.9513  -5.8023
    -5.4501  -5.3772  -5.3310  -5.2664  -5.2165  -5.1781  -5.1677  -5.1220
    -5.0887  -5.0478  -4.8492  -4.6695  -4.5757  -4.5051  -4.4873  -4.4326
    -4.3260  -4.2172  -4.1030  -3.9972  -3.8369  -3.7535  -3.6043  -3.5133
    -3.4181  -3.3280  -3.2733  -3.1337  -3.0646  -3.0084  -2.9650  -2.8770
    -2.8430  -2.7754  -2.6824  -2.6384  -2.6202  -2.4623  -2.3692  -2.2743
    -2.1619  -2.0480  -1.9395  -1.8859  -1.8315  -1.6594  -1.5520  -1.3998
    -1.2758

          k = 0.2500 0.1443 0.0000 (129973 PWs)   bands (ev):

   -15.7458 -15.0554 -14.7279 -14.6775 -14.4056 -14.2887 -14.2073 -14.0556
   -13.9598 -13.8868 -13.7633 -13.7084 -13.6191 -13.5609 -13.4923 -13.3419
   -13.1587 -13.0209  -7.0174  -6.8820  -6.8065  -6.7647  -6.6734  -6.5831
    -6.4342  -6.3602  -6.3000  -6.2740  -6.1734  -6.1303  -5.9383  -5.8469
    -5.4230  -5.3526  -5.2751  -5.2330  -5.2127  -5.1655  -5.1338  -5.0848
    -5.0420  -4.9938  -4.8340  -4.6473  -4.5456  -4.5005  -4.4562  -4.3648
    -4.2768  -4.1752  -4.0982  -4.0336  -3.9288  -3.8240  -3.6219  -3.4981
    -3.4252  -3.3243  -3.2816  -3.1846  -3.1192  -3.0655  -2.9929  -2.9429
    -2.8789  -2.7995  -2.7076  -2.6665  -2.5902  -2.5186  -2.3392  -2.2376
    -2.1653  -2.0595  -1.9930  -1.8469  -1.7418  -1.6957  -1.5337  -1.3913
    -1.2701

          k = 0.5000-0.2887 0.0000 (130074 PWs)   bands (ev):

   -15.5319 -15.3671 -14.8783 -14.7132 -14.2715 -14.2131 -14.0507 -14.0358
   -13.9139 -13.8627 -13.8286 -13.8012 -13.7345 -13.5043 -13.3233 -13.2884
   -13.2650 -13.0608  -7.3105  -6.8346  -6.7933  -6.7302  -6.7104  -6.5834
    -6.4757  -6.3224  -6.2759  -6.2492  -6.1743  -6.1306  -6.0762  -6.0214
    -5.3702  -5.3278  -5.2554  -5.2132  -5.1722  -5.1071  -5.0906  -4.9964
    -4.9373  -4.7456  -4.7301  -4.6925  -4.5966  -4.5148  -4.4671  -4.3783
    -4.3112  -4.2029  -4.1861  -4.0225  -3.7857  -3.6782  -3.6647  -3.5577
    -3.4819  -3.3860  -3.3326  -3.1946  -3.1466  -3.1202  -3.0391  -3.0285
    -2.9735  -2.8387  -2.7423  -2.5808  -2.4565  -2.4238  -2.2919  -2.1533
    -2.0354  -1.9549  -1.8720  -1.8389  -1.7423  -1.6183  -1.5296  -1.5071
    -1.3780

          k =-0.5000-0.2887 0.0000 (130074 PWs)   bands (ev):

   -15.5012 -15.4295 -14.7989 -14.7433 -14.2682 -14.1990 -14.0989 -13.9764
   -13.9365 -13.8809 -13.8608 -13.8022 -13.7173 -13.4800 -13.3957 -13.2697
   -13.2185 -13.0664  -7.2369  -6.8666  -6.8379  -6.7611  -6.7214  -6.5959
    -6.5027  -6.3952  -6.3471  -6.2411  -6.2232  -6.1235  -6.1150  -6.0166
    -5.4267  -5.2058  -5.1857  -5.1349  -5.1196  -5.0661  -4.9972  -4.9534
    -4.8908  -4.6796  -4.6404  -4.5600  -4.5435  -4.4994  -4.4594  -4.3731
    -4.3321  -4.2586  -4.0358  -3.9952  -3.8303  -3.7714  -3.7180  -3.6414
    -3.5846  -3.4003  -3.3601  -3.2519  -3.2119  -3.1826  -3.1270  -3.0456
    -2.9738  -2.9327  -2.8206  -2.5949  -2.4612  -2.3822  -2.3286  -2.1400
    -2.1267  -1.9830  -1.9065  -1.7899  -1.6595  -1.6346  -1.5974  -1.4853
    -1.2955

          k =-0.2500-0.7217 0.0000 (130016 PWs)   bands (ev):

   -15.5633 -15.2225 -15.1325 -14.3941 -14.3537 -14.2382 -14.1116 -14.0553
   -14.0213 -13.9224 -13.7674 -13.7276 -13.6362 -13.5214 -13.4031 -13.3062
   -13.2132 -13.0533  -7.1616  -7.1514  -6.9071  -6.6414  -6.5477  -6.4730
    -6.4439  -6.3807  -6.3224  -6.2618  -6.2265  -6.1598  -6.0206  -5.7449
    -5.6880  -5.3572  -5.2822  -5.2412  -5.1352  -5.1101  -5.0123  -4.9766
    -4.9056  -4.7820  -4.7514  -4.7153  -4.5685  -4.4940  -4.4682  -4.3719
    -4.3188  -4.1724  -4.1118  -4.0232  -3.8245  -3.7276  -3.6685  -3.5220
    -3.4493  -3.3616  -3.3361  -3.2952  -3.1805  -3.1129  -3.0466  -2.9785
    -2.8493  -2.7673  -2.6952  -2.6624  -2.5864  -2.3886  -2.3673  -2.2027
    -2.0815  -1.9457  -1.8740  -1.8072  -1.7455  -1.6470  -1.5573  -1.4478
    -1.3333

          k =-0.5000-0.5774 0.0000 (130016 PWs)   bands (ev):

   -15.5645 -15.2275 -15.1301 -14.4051 -14.3087 -14.2782 -14.1035 -14.0564
   -13.9521 -13.9152 -13.8655 -13.7120 -13.6099 -13.5731 -13.3738 -13.2694
   -13.2471 -13.0511  -7.1636  -7.0951  -6.9383  -6.6487  -6.5747  -6.5037
    -6.4255  -6.3705  -6.3241  -6.2943  -6.2584  -6.1891  -6.1472  -5.7128
    -5.5535  -5.3806  -5.2744  -5.2442  -5.0745  -5.0305  -4.9712  -4.9266
    -4.8991  -4.8140  -4.7119  -4.5943  -4.5468  -4.4857  -4.4367  -4.4001
    -4.3169  -4.2324  -4.1964  -3.9142  -3.8985  -3.7683  -3.6579  -3.5656
    -3.4932  -3.4599  -3.3733  -3.2993  -3.1838  -3.1150  -3.0003  -2.9409
    -2.8660  -2.7894  -2.7519  -2.6625  -2.5843  -2.4284  -2.3744  -2.2130
    -2.0518  -1.9626  -1.9065  -1.8304  -1.7117  -1.6469  -1.5386  -1.4395
    -1.2947

     highest occupied level (ev):    -1.1609

!    total energy              =    -501.45357707 Ry
     estimated scf accuracy    <       0.00000009 Ry

     The total energy is the sum of the following terms:
     one-electron contribution =   -3974.25006829 Ry
     hartree contribution      =    2024.54202235 Ry
     xc contribution           =    -115.33150825 Ry
     ewald contribution        =    1563.58597712 Ry

     convergence has been achieved in  41 iterations

     atom    1 type  3   force =    -0.03061635    0.05365276    0.10743766
     atom    2 type  1   force =    -0.00596187    0.02456682   -0.06939800
     atom    3 type  2   force =    -0.03857731    0.04702316   -0.07548410
     atom    4 type  3   force =     0.09967264   -0.05741995    0.11095696
     atom    5 type  1   force =    -0.03551319   -0.10675453    0.04618889
     atom    6 type  2   force =     0.02640106   -0.01997886    0.03251926
     atom    7 type  3   force =    -0.01609562    0.05103249   -0.03613233
     atom    8 type  1   force =    -0.01718449   -0.03734818   -0.02972152
     atom    9 type  2   force =    -0.02996843   -0.05106007   -0.01770759
     atom   10 type  3   force =     0.03604177   -0.13311194    0.11328870
     atom   11 type  1   force =    -0.01392011    0.05011934    0.01471629
     atom   12 type  2   force =     0.00567389    0.02803940    0.00946153
     atom   13 type  3   force =     0.07193705    0.12284548   -0.11146378
     atom   14 type  1   force =    -0.06202575   -0.01869382   -0.01001543
     atom   15 type  2   force =    -0.02896668   -0.07514543   -0.02878028
     atom   16 type  3   force =     0.10020242    0.08793228   -0.02441012
     atom   17 type  1   force =    -0.00470134   -0.02286942   -0.03760149
     atom   18 type  2   force =    -0.09070948    0.04884378   -0.00561510
     atom   19 type  3   force =     0.04430696   -0.05051290    0.04532884
     atom   20 type  1   force =     0.00053174   -0.02103476   -0.04300237
     atom   21 type  2   force =    -0.01145052    0.00970024   -0.09074577
     atom   22 type  3   force =     0.07142640    0.05893631    0.14954682
     atom   23 type  1   force =    -0.01232620   -0.01480172   -0.06747184
     atom   24 type  2   force =    -0.03544292    0.02107621   -0.00578624
     atom   25 type  3   force =     0.02821667    0.02671999   -0.03163303
     atom   26 type  1   force =    -0.01026370   -0.00325934    0.04057420
     atom   27 type  2   force =    -0.04068666   -0.01849733    0.01494986

     Total force =     0.505598     Total SCF correction =     0.000652


     Computing stress (Cartesian axis) and pressure

   0.00001014  -0.00002709   0.00002819            1.49       -3.98        4.15
  -0.00002709   0.00002694  -0.00003357           -3.98        3.96       -4.94
   0.00002819  -0.00003357  -0.00001182            4.15       -4.94       -1.74


     Writing all to output data dir /scratch/asgouros/train_MoSSe_defT_3x3//pert_0.000_0.000_0.000_0_0.10/pert_0.000_0.000_0.000_0_0.10.save/ :
     XML data file, charge density, pseudopotentials, collected wavefunctions

     init_run     :     90.23s CPU     95.24s WALL (       1 calls)
     electrons    :   4082.48s CPU   4235.79s WALL (       1 calls)
     forces       :      8.84s CPU      8.99s WALL (       1 calls)
     stress       :    184.98s CPU    187.95s WALL (       1 calls)

     Called by init_run:
     wfcinit      :     89.31s CPU     94.30s WALL (       1 calls)
     potinit      :      0.09s CPU      0.10s WALL (       1 calls)
     hinit0       :      0.44s CPU      0.45s WALL (       1 calls)

     Called by electrons:
     c_bands      :   3516.31s CPU   3650.82s WALL (      41 calls)
     sum_band     :    554.47s CPU    572.10s WALL (      41 calls)
     v_of_rho     :      2.72s CPU      2.88s WALL (      42 calls)
     mix_rho      :      8.10s CPU      8.99s WALL (      41 calls)

     Called by c_bands:
     init_us_2    :     83.85s CPU     84.42s WALL (     850 calls)
     cegterg      :   3371.02s CPU   3502.71s WALL (     410 calls)

     Called by *egterg:
     cdiaghg      :     21.48s CPU     21.55s WALL (    2221 calls)
     h_psi        :   2940.12s CPU   3057.01s WALL (    2231 calls)
     g_psi        :      8.17s CPU      8.21s WALL (    1811 calls)

     Called by h_psi:
     h_psi:calbec :    233.00s CPU    235.81s WALL (    2231 calls)
     vloc_psi     :   2518.54s CPU   2619.89s WALL (    2231 calls)
     add_vuspsi   :    172.93s CPU    173.48s WALL (    2231 calls)

     General routines
     calbec       :    240.08s CPU    242.94s WALL (    2281 calls)
     fft          :      3.08s CPU      3.34s WALL (     130 calls)
     ffts         :      1.04s CPU      1.13s WALL (      41 calls)
     fftw         :   2264.02s CPU   2368.66s WALL (  217466 calls)

     Parallel routines

     PWSCF        :      1h12m CPU      1h15m WALL


   This run was terminated on:   0:53:23  11Jun2025            

=------------------------------------------------------------------------------=
   JOB DONE.
=------------------------------------------------------------------------------=
