
     Program PWSCF v.7.3.1 starts on 21Oct2025 at 16:24:44 

     This program is part of the open-source Quantum ESPRESSO suite
     for quantum simulation of materials; please cite
         "P. Giannozzi et al., J. Phys.:Condens. Matter 21 395502 (2009);
         "P. Giannozzi et al., J. Phys.:Condens. Matter 29 465901 (2017);
         "P. Giannozzi et al., J. Chem. Phys. 152 154105 (2020);
          URL http://www.quantum-espresso.org", 
     in publications or presentations arising from this work. More details at
     http://www.quantum-espresso.org/quote

     Parallel version (MPI), running on     6 processors

     MPI processes distributed on     1 nodes
     1204 MiB available memory on the printing compute node when the environment starts

     Waiting for input...
     Reading input from standard input

     Current dimensions of program PWSCF are:
     Max number of different atomic species (ntypx) = 10
     Max number of k-points (npk) =  40000
     Max angular momentum in pseudopotentials (lmaxx) =  4

     R & G space division:  proc/nbgrp/npool/nimage =       6
     Subspace diagonalization in iterative solution of the eigenvalue problem:
     a serial algorithm will be used


     Parallelization info
     --------------------
     sticks:   dense  smooth     PW     G-vecs:    dense   smooth      PW
     Min         128     128     39                11788    11788    1937
     Max         129     129     41                11803    11803    1940
     Sum         769     769    241                70759    70759   11629

     Using Slab Decomposition



     bravais-lattice index     =            0
     lattice parameter (alat)  =       5.9300  a.u.
     unit-cell volume          =     732.6473 (a.u.)^3
     number of atoms/cell      =            3
     number of atomic types    =            2
     number of electrons       =        18.00
     number of Kohn-Sham states=            9
     kinetic-energy cutoff     =      80.0000  Ry
     charge density cutoff     =     320.0000  Ry
     scf convergence threshold =      1.0E-10
     mixing beta               =       0.7000
     number of iterations used =            8  plain     mixing
     energy convergence thresh.=      1.0E-05
     force convergence thresh. =      1.0E-04
     Exchange-correlation= SLA-PZ-NOGX-NOGC
                           (   1   1   0   0   0   0   0)
     nstep                     =           50


     celldm(1)=   5.929960  celldm(2)=   0.000000  celldm(3)=   0.000000
     celldm(4)=   0.000000  celldm(5)=   0.000000  celldm(6)=   0.000000

     crystal axes: (cart. coord. in units of alat)
               a(1) = (   1.000000  -0.000001   0.000000 )  
               a(2) = (   0.499999   0.866020   0.000000 )  
               a(3) = (  -0.040571   0.000000   4.057058 )  

     reciprocal axes: (cart. coord. in units 2 pi/alat)
               b(1) = (  0.999999 -0.577353  0.010000 )  
               b(2) = (  0.000001  1.154706  0.000000 )  
               b(3) = ( -0.000000  0.000000  0.246484 )  


     PseudoPot. # 1 for S  read from file:
     ./pseudo_dir/S.pz-hgh.UPF
     MD5 check sum: 38f9f902ee430b58f9df3cf2bf519617
     Pseudo is Norm-conserving, Zval =  6.0
     Generated in analytical, separable form
     Using radial grid of 1151 points,  3 beta functions with: 
                l(1) =   0
                l(2) =   0
                l(3) =   1

     PseudoPot. # 2 for Mo read from file:
     ./pseudo_dir/Mo.pz-hgh.UPF
     MD5 check sum: ddacfae2313397baf1b67b06fa6affd0
     Pseudo is Norm-conserving, Zval =  6.0
     Generated in analytical, separable form
     Using radial grid of 1229 points,  6 beta functions with: 
                l(1) =   0
                l(2) =   0
                l(3) =   1
                l(4) =   1
                l(5) =   2
                l(6) =   2

     atomic species   valence    mass     pseudopotential
     S                 6.00    32.07000     S ( 1.00)
     Mo                6.00    95.94000     Mo( 1.00)

     No symmetry found



   Cartesian axes

     site n.     atom                  positions (alat units)
         1        Mo     tau(   1) = (  -0.0003012   0.0015291   0.0000000  )
         2        S      tau(   2) = (   0.4947180   0.2902006   0.4979213  )
         3        S      tau(   3) = (   0.5046764   0.2902006  -0.4979213  )

     number of k points=    13
                       cart. coord. in units 2pi/alat
        k(    1) = (   0.0000000   0.0000000   0.0000000), wk =   0.0800000
        k(    2) = (   0.0000002   0.2309413   0.0000000), wk =   0.1600000
        k(    3) = (   0.0000005   0.4618826   0.0000000), wk =   0.1600000
        k(    4) = (   0.1999999  -0.1154705   0.0020000), wk =   0.1600000
        k(    5) = (   0.2000001   0.1154708   0.0020000), wk =   0.1600000
        k(    6) = (   0.2000004   0.3464120   0.0020000), wk =   0.1600000
        k(    7) = (   0.1999994  -0.5773531   0.0020000), wk =   0.1600000
        k(    8) = (   0.1999996  -0.3464118   0.0020000), wk =   0.1600000
        k(    9) = (   0.3999998  -0.2309410   0.0040000), wk =   0.1600000
        k(   10) = (   0.4000000   0.0000002   0.0040000), wk =   0.1600000
        k(   11) = (   0.4000002   0.2309415   0.0040000), wk =   0.1600000
        k(   12) = (   0.3999993  -0.6928236   0.0040000), wk =   0.1600000
        k(   13) = (   0.3999995  -0.4618823   0.0040000), wk =   0.1600000

     Dense  grid:    70759 G-vectors     FFT dimensions: (  36,  36, 144)

     Estimated max dynamical RAM per process >      14.56 MB

     Estimated total dynamical RAM >      87.38 MB

     Atomic positions and unit cell read from directory:
     /scratch/asgouros//o.demo_/o.demo_.save/
     Atomic positions from file used, from input discarded


     The initial density is read from file :
     /scratch/asgouros//o.demo_/o.demo_.save/charge-density


     negative rho (up, down):  3.168E+00 0.000E+00
     Starting wfcs from file

     total cpu time spent up to now is        0.5 secs

     Self-consistent Calculation

     iteration #  1     ecut=    80.00 Ry     beta= 0.70
     Davidson diagonalization with overlap
     c_bands:  5 eigenvalues not converged
     c_bands:  5 eigenvalues not converged
     c_bands:  5 eigenvalues not converged
     c_bands:  5 eigenvalues not converged
     c_bands:  5 eigenvalues not converged
     c_bands:  5 eigenvalues not converged
     c_bands:  5 eigenvalues not converged
     c_bands:  5 eigenvalues not converged
     c_bands:  4 eigenvalues not converged
     ethr =  1.00E-05,  avg # of iterations = 25.3

     negative rho (up, down):  6.820E-01 0.000E+00

     total cpu time spent up to now is        3.0 secs

     total energy              =     -53.67947150 Ry
     estimated scf accuracy    <      14.51804985 Ry

     iteration #  2     ecut=    80.00 Ry     beta= 0.70
     Davidson diagonalization with overlap
     ethr =  1.00E-02,  avg # of iterations =  8.5

     negative rho (up, down):  4.697E-01 0.000E+00

     total cpu time spent up to now is        3.9 secs

     total energy              =     -51.60823859 Ry
     estimated scf accuracy    <      22.60569092 Ry

     iteration #  3     ecut=    80.00 Ry     beta= 0.70
     Davidson diagonalization with overlap
     ethr =  1.00E-02,  avg # of iterations =  6.8

     negative rho (up, down):  7.149E-02 0.000E+00

     total cpu time spent up to now is        4.6 secs

     total energy              =     -55.82593054 Ry
     estimated scf accuracy    <       8.04289782 Ry

     iteration #  4     ecut=    80.00 Ry     beta= 0.70
     Davidson diagonalization with overlap
     ethr =  1.00E-02,  avg # of iterations =  4.6

     negative rho (up, down):  1.920E-02 0.000E+00

     total cpu time spent up to now is        5.0 secs

     total energy              =     -57.08784715 Ry
     estimated scf accuracy    <       0.68870417 Ry

     iteration #  5     ecut=    80.00 Ry     beta= 0.70
     Davidson diagonalization with overlap
     ethr =  3.83E-03,  avg # of iterations =  4.0

     negative rho (up, down):  1.321E-03 0.000E+00

     total cpu time spent up to now is        5.5 secs

     total energy              =     -57.21282938 Ry
     estimated scf accuracy    <       0.06883664 Ry

     iteration #  6     ecut=    80.00 Ry     beta= 0.70
     Davidson diagonalization with overlap
     ethr =  3.82E-04,  avg # of iterations =  5.9

     negative rho (up, down):  4.262E-05 0.000E+00

     total cpu time spent up to now is        6.0 secs

     total energy              =     -57.24579125 Ry
     estimated scf accuracy    <       0.03149673 Ry

     iteration #  7     ecut=    80.00 Ry     beta= 0.70
     Davidson diagonalization with overlap
     ethr =  1.75E-04,  avg # of iterations =  2.7

     total cpu time spent up to now is        6.4 secs

     total energy              =     -57.24804876 Ry
     estimated scf accuracy    <       0.01083885 Ry

     iteration #  8     ecut=    80.00 Ry     beta= 0.70
     Davidson diagonalization with overlap
     ethr =  6.02E-05,  avg # of iterations =  3.8

     total cpu time spent up to now is        6.8 secs

     total energy              =     -57.25064710 Ry
     estimated scf accuracy    <       0.00062924 Ry

     iteration #  9     ecut=    80.00 Ry     beta= 0.70
     Davidson diagonalization with overlap
     ethr =  3.50E-06,  avg # of iterations =  5.9

     negative rho (up, down):  6.711E-04 0.000E+00

     total cpu time spent up to now is        7.3 secs

     total energy              =     -57.25089507 Ry
     estimated scf accuracy    <       0.00081392 Ry

     iteration # 10     ecut=    80.00 Ry     beta= 0.70
     Davidson diagonalization with overlap
     ethr =  3.50E-06,  avg # of iterations =  3.2

     negative rho (up, down):  4.453E-04 0.000E+00

     total cpu time spent up to now is        7.8 secs

     total energy              =     -57.25099835 Ry
     estimated scf accuracy    <       0.00008600 Ry

     iteration # 11     ecut=    80.00 Ry     beta= 0.70
     Davidson diagonalization with overlap
     ethr =  4.78E-07,  avg # of iterations =  4.8

     negative rho (up, down):  1.531E-05 0.000E+00

     total cpu time spent up to now is        8.3 secs

     total energy              =     -57.25101496 Ry
     estimated scf accuracy    <       0.00002095 Ry

     iteration # 12     ecut=    80.00 Ry     beta= 0.70
     Davidson diagonalization with overlap
     ethr =  1.16E-07,  avg # of iterations =  4.8

     total cpu time spent up to now is        8.7 secs

     total energy              =     -57.25102157 Ry
     estimated scf accuracy    <       0.00000533 Ry

     iteration # 13     ecut=    80.00 Ry     beta= 0.70
     Davidson diagonalization with overlap
     ethr =  2.96E-08,  avg # of iterations =  3.0

     total cpu time spent up to now is        9.1 secs

     total energy              =     -57.25102211 Ry
     estimated scf accuracy    <       0.00000070 Ry

     iteration # 14     ecut=    80.00 Ry     beta= 0.70
     Davidson diagonalization with overlap
     ethr =  3.87E-09,  avg # of iterations =  6.7

     total cpu time spent up to now is        9.8 secs

     total energy              =     -57.25102252 Ry
     estimated scf accuracy    <       0.00000203 Ry

     iteration # 15     ecut=    80.00 Ry     beta= 0.70
     Davidson diagonalization with overlap
     ethr =  3.87E-09,  avg # of iterations =  3.8

     total cpu time spent up to now is       10.3 secs

     total energy              =     -57.25102268 Ry
     estimated scf accuracy    <       0.00000013 Ry

     iteration # 16     ecut=    80.00 Ry     beta= 0.70
     Davidson diagonalization with overlap
     ethr =  7.40E-10,  avg # of iterations =  5.8

     total cpu time spent up to now is       10.8 secs

     total energy              =     -57.25102276 Ry
     estimated scf accuracy    <       0.00000024 Ry

     iteration # 17     ecut=    80.00 Ry     beta= 0.70
     Davidson diagonalization with overlap
     ethr =  7.40E-10,  avg # of iterations =  2.0

     total cpu time spent up to now is       11.2 secs

     total energy              =     -57.25102274 Ry
     estimated scf accuracy    <       0.00000009 Ry

     iteration # 18     ecut=    80.00 Ry     beta= 0.70
     Davidson diagonalization with overlap
     ethr =  4.75E-10,  avg # of iterations =  4.7

     total cpu time spent up to now is       11.6 secs

     total energy              =     -57.25102277 Ry
     estimated scf accuracy    <       0.00000002 Ry

     iteration # 19     ecut=    80.00 Ry     beta= 0.70
     Davidson diagonalization with overlap
     ethr =  1.09E-10,  avg # of iterations =  2.2

     total cpu time spent up to now is       11.9 secs

     total energy              =     -57.25102276 Ry
     estimated scf accuracy    <       0.00000002 Ry

     iteration # 20     ecut=    80.00 Ry     beta= 0.70
     Davidson diagonalization with overlap
     ethr =  8.61E-11,  avg # of iterations =  3.0

     total cpu time spent up to now is       12.3 secs

     total energy              =     -57.25102277 Ry
     estimated scf accuracy    <          1.5E-09 Ry

     iteration # 21     ecut=    80.00 Ry     beta= 0.70
     Davidson diagonalization with overlap
     ethr =  8.32E-12,  avg # of iterations =  4.8

     total cpu time spent up to now is       12.8 secs

     total energy              =     -57.25102277 Ry
     estimated scf accuracy    <          2.2E-10 Ry

     iteration # 22     ecut=    80.00 Ry     beta= 0.70
     Davidson diagonalization with overlap
     ethr =  1.23E-12,  avg # of iterations =  3.6

     total cpu time spent up to now is       13.2 secs

     total energy              =     -57.25102277 Ry
     estimated scf accuracy    <          2.0E-10 Ry

     iteration # 23     ecut=    80.00 Ry     beta= 0.70
     Davidson diagonalization with overlap
     ethr =  1.10E-12,  avg # of iterations =  4.6

     total cpu time spent up to now is       13.7 secs

     total energy              =     -57.25102277 Ry
     estimated scf accuracy    <          3.0E-10 Ry

     iteration # 24     ecut=    80.00 Ry     beta= 0.70
     Davidson diagonalization with overlap
     ethr =  1.10E-12,  avg # of iterations =  1.9

     total cpu time spent up to now is       14.0 secs

     total energy              =     -57.25102277 Ry
     estimated scf accuracy    <          3.9E-10 Ry

     iteration # 25     ecut=    80.00 Ry     beta= 0.70
     Davidson diagonalization with overlap
     ethr =  1.10E-12,  avg # of iterations =  1.2

     total cpu time spent up to now is       14.3 secs

     total energy              =     -57.25102277 Ry
     estimated scf accuracy    <          2.4E-10 Ry

     iteration # 26     ecut=    80.00 Ry     beta= 0.70
     Davidson diagonalization with overlap
     ethr =  1.10E-12,  avg # of iterations =  2.6

     total cpu time spent up to now is       14.7 secs

     End of self-consistent calculation

          k = 0.0000 0.0000 0.0000 (  8901 PWs)   bands (ev):

   -13.3909 -12.1048  -4.9003  -1.7608  -1.7607  -0.9684  -0.5558  -0.5553
     0.7289

          k = 0.0000 0.2309 0.0000 (  8893 PWs)   bands (ev):

   -12.8134 -11.8134  -4.3447  -2.7488  -2.3606  -1.3233  -1.1373  -0.2626
     0.3335

          k = 0.0000 0.4619 0.0000 (  8838 PWs)   bands (ev):

   -11.6367 -11.2426  -4.8488  -3.8464  -3.1874  -2.1938  -0.9487  -0.1065
    -0.0532

          k = 0.2000-0.1155 0.0020 (  8879 PWs)   bands (ev):

   -12.8134 -11.8134  -4.3446  -2.7488  -2.3608  -1.3230  -1.1373  -0.2626
     0.3334

          k = 0.2000 0.1155 0.0020 (  8879 PWs)   bands (ev):

   -12.8134 -11.8134  -4.3446  -2.7488  -2.3608  -1.3230  -1.1373  -0.2626
     0.3334

          k = 0.2000 0.3464 0.0020 (  8857 PWs)   bands (ev):

   -11.9081 -11.3572  -4.3225  -3.4189  -2.8625  -2.5387  -1.4104  -0.3552
     0.1007

          k = 0.2000-0.5774 0.0020 (  8841 PWs)   bands (ev):

   -11.2131 -11.0040  -4.5322  -4.4650  -3.1400  -2.3200  -1.8789  -1.0936
     0.6412

          k = 0.2000-0.3464 0.0020 (  8857 PWs)   bands (ev):

   -11.9081 -11.3572  -4.3225  -3.4189  -2.8625  -2.5387  -1.4104  -0.3552
     0.1007

          k = 0.4000-0.2309 0.0040 (  8825 PWs)   bands (ev):

   -11.6367 -11.2427  -4.8488  -3.8463  -3.1873  -2.1936  -0.9488  -0.1064
    -0.0534

          k = 0.4000 0.0000 0.0040 (  8845 PWs)   bands (ev):

   -11.9081 -11.3572  -4.3224  -3.4188  -2.8624  -2.5388  -1.4104  -0.3552
     0.1007

          k = 0.4000 0.2309 0.0040 (  8825 PWs)   bands (ev):

   -11.6367 -11.2427  -4.8488  -3.8463  -3.1873  -2.1936  -0.9488  -0.1064
    -0.0534

          k = 0.4000-0.6928 0.0040 (  8845 PWs)   bands (ev):

   -11.2131 -11.0041  -4.5323  -4.4649  -3.1400  -2.3199  -1.8789  -1.0938
     0.6412

          k = 0.4000-0.4619 0.0040 (  8845 PWs)   bands (ev):

   -11.2131 -11.0041  -4.5323  -4.4649  -3.1400  -2.3199  -1.8789  -1.0938
     0.6412

     highest occupied level (ev):     0.7289

!    total energy              =     -57.25102277 Ry
     estimated scf accuracy    <          4.6E-11 Ry

     The total energy is the sum of the following terms:
     one-electron contribution =    -192.52612551 Ry
     hartree contribution      =     102.08100501 Ry
     xc contribution           =     -13.16647508 Ry
     ewald contribution        =      46.36057281 Ry

     convergence has been achieved in  26 iterations

     Forces acting on atoms (cartesian axes, Ry/au):

     atom    1 type  2   force =    -0.00000008   -0.00004248   -0.00000092
     atom    2 type  1   force =     0.00000040    0.00002120   -0.00000418
     atom    3 type  1   force =    -0.00000032    0.00002128    0.00000510

     Total force =     0.000052     Total SCF correction =     0.000016
     SCF correction compared to forces is large: reduce conv_thr to get better values


     Computing stress (Cartesian axis) and pressure

          total   stress  (Ry/bohr**3)                   (kbar)     P=       -0.06
   0.00000195   0.00000000  -0.00000002            0.29        0.00       -0.00
   0.00000000   0.00000190  -0.00000000            0.00        0.28       -0.00
  -0.00000002  -0.00000000  -0.00000499           -0.00       -0.00       -0.73


     BFGS Geometry Optimization
     Energy error            =      0.0E+00 Ry
     Gradient error          =      4.2E-05 Ry/Bohr

     bfgs converged in   1 scf cycles and   0 bfgs steps
     (criteria: energy <  1.0E-05 Ry, force <  1.0E-04 Ry/Bohr)

     End of BFGS Geometry Optimization

     Final energy             =     -57.2510227659 Ry
Begin final coordinates

ATOMIC_POSITIONS (angstrom)
Mo              -0.0009484192        0.0109795127        0.0000000000
S                1.5680512348        0.9167814002        1.5626822540
S                1.5680512348        0.9167814002       -1.5626822540
End final coordinates



     Writing all to output data dir /scratch/asgouros//o.demo_/o.demo_.save/ :
     XML data file, charge density, pseudopotentials, collected wavefunctions

     init_run     :      0.35s CPU      0.37s WALL (       1 calls)
     electrons    :     13.20s CPU     14.21s WALL (       1 calls)
     forces       :      0.04s CPU      0.04s WALL (       1 calls)
     stress       :      0.28s CPU      0.28s WALL (       1 calls)

     Called by init_run:
     wfcinit      :      0.01s CPU      0.03s WALL (       1 calls)
     potinit      :      0.01s CPU      0.01s WALL (       1 calls)
     hinit0       :      0.31s CPU      0.32s WALL (       1 calls)

     Called by electrons:
     c_bands      :     11.64s CPU     12.54s WALL (      26 calls)
     sum_band     :      1.38s CPU      1.48s WALL (      26 calls)
     v_of_rho     :      0.07s CPU      0.07s WALL (      27 calls)
     mix_rho      :      0.09s CPU      0.11s WALL (      26 calls)

     Called by c_bands:
     init_us_2    :      0.37s CPU      0.39s WALL (     702 calls)
     cegterg      :     11.08s CPU     11.86s WALL (     342 calls)

     Called by *egterg:
     cdiaghg      :      0.24s CPU      0.26s WALL (    2020 calls)
     h_psi        :      9.70s CPU     10.39s WALL (    2037 calls)
     g_psi        :      0.09s CPU      0.10s WALL (    1695 calls)

     Called by h_psi:
     h_psi:calbec :      0.41s CPU      0.44s WALL (    2037 calls)
     vloc_psi     :      8.91s CPU      9.54s WALL (    2037 calls)
     add_vuspsi   :      0.33s CPU      0.36s WALL (    2037 calls)

     General routines
     calbec       :      0.43s CPU      0.46s WALL (    2102 calls)
     fft          :      0.31s CPU      0.31s WALL (      85 calls)
     ffts         :      0.01s CPU      0.02s WALL (      26 calls)
     fftw         :      8.86s CPU      9.50s WALL (   27238 calls)

     Parallel routines

     PWSCF        :     14.01s CPU     15.08s WALL


   This run was terminated on:  16:24:59  21Oct2025            

=------------------------------------------------------------------------------=
   JOB DONE.
=------------------------------------------------------------------------------=
