
     Program PWSCF v.7.3.1 starts on 21Oct2025 at 16:25: 0 

     This program is part of the open-source Quantum ESPRESSO suite
     for quantum simulation of materials; please cite
         "P. Giannozzi et al., J. Phys.:Condens. Matter 21 395502 (2009);
         "P. Giannozzi et al., J. Phys.:Condens. Matter 29 465901 (2017);
         "P. Giannozzi et al., J. Chem. Phys. 152 154105 (2020);
          URL http://www.quantum-espresso.org", 
     in publications or presentations arising from this work. More details at
     http://www.quantum-espresso.org/quote

     Parallel version (MPI), running on     6 processors

     MPI processes distributed on     1 nodes
     1402 MiB available memory on the printing compute node when the environment starts

     Waiting for input...
     Reading input from standard input

     Current dimensions of program PWSCF are:
     Max number of different atomic species (ntypx) = 10
     Max number of k-points (npk) =  40000
     Max angular momentum in pseudopotentials (lmaxx) =  4

     R & G space division:  proc/nbgrp/npool/nimage =       6
     Subspace diagonalization in iterative solution of the eigenvalue problem:
     a serial algorithm will be used


     Parallelization info
     --------------------
     sticks:   dense  smooth     PW     G-vecs:    dense   smooth      PW
     Min         128     128     39                11788    11788    1937
     Max         129     129     41                11803    11803    1940
     Sum         769     769    241                70759    70759   11629

     Using Slab Decomposition



     bravais-lattice index     =            0
     lattice parameter (alat)  =       5.9300  a.u.
     unit-cell volume          =     732.6473 (a.u.)^3
     number of atoms/cell      =            3
     number of atomic types    =            2
     number of electrons       =        18.00
     number of Kohn-Sham states=            9
     kinetic-energy cutoff     =      80.0000  Ry
     charge density cutoff     =     320.0000  Ry
     scf convergence threshold =      1.0E-10
     mixing beta               =       0.7000
     number of iterations used =            8  plain     mixing
     energy convergence thresh.=      1.0E-05
     force convergence thresh. =      1.0E-04
     Exchange-correlation= SLA-PZ-NOGX-NOGC
                           (   1   1   0   0   0   0   0)
     nstep                     =           50


     celldm(1)=   5.929960  celldm(2)=   0.000000  celldm(3)=   0.000000
     celldm(4)=   0.000000  celldm(5)=   0.000000  celldm(6)=   0.000000

     crystal axes: (cart. coord. in units of alat)
               a(1) = (   1.000000  -0.000001   0.000000 )  
               a(2) = (   0.499999   0.866020   0.000000 )  
               a(3) = (   0.040571   0.000000   4.057058 )  

     reciprocal axes: (cart. coord. in units 2 pi/alat)
               b(1) = (  0.999999 -0.577353 -0.010000 )  
               b(2) = (  0.000001  1.154706 -0.000000 )  
               b(3) = ( -0.000000  0.000000  0.246484 )  


     PseudoPot. # 1 for S  read from file:
     ./pseudo_dir/S.pz-hgh.UPF
     MD5 check sum: 38f9f902ee430b58f9df3cf2bf519617
     Pseudo is Norm-conserving, Zval =  6.0
     Generated in analytical, separable form
     Using radial grid of 1151 points,  3 beta functions with: 
                l(1) =   0
                l(2) =   0
                l(3) =   1

     PseudoPot. # 2 for Mo read from file:
     ./pseudo_dir/Mo.pz-hgh.UPF
     MD5 check sum: ddacfae2313397baf1b67b06fa6affd0
     Pseudo is Norm-conserving, Zval =  6.0
     Generated in analytical, separable form
     Using radial grid of 1229 points,  6 beta functions with: 
                l(1) =   0
                l(2) =   0
                l(3) =   1
                l(4) =   1
                l(5) =   2
                l(6) =   2

     atomic species   valence    mass     pseudopotential
     S                 6.00    32.07000     S ( 1.00)
     Mo                6.00    95.94000     Mo( 1.00)

     No symmetry found



   Cartesian axes

     site n.     atom                  positions (alat units)
         1        Mo     tau(   1) = (  -0.0003012   0.0015291   0.0000000  )
         2        S      tau(   2) = (   0.5046764   0.2902006   0.4979213  )
         3        S      tau(   3) = (   0.4947180   0.2902006  -0.4979213  )

     number of k points=    13
                       cart. coord. in units 2pi/alat
        k(    1) = (   0.0000000   0.0000000   0.0000000), wk =   0.0800000
        k(    2) = (   0.0000002   0.2309413  -0.0000000), wk =   0.1600000
        k(    3) = (   0.0000005   0.4618826  -0.0000000), wk =   0.1600000
        k(    4) = (   0.1999999  -0.1154705  -0.0020000), wk =   0.1600000
        k(    5) = (   0.2000001   0.1154708  -0.0020000), wk =   0.1600000
        k(    6) = (   0.2000004   0.3464120  -0.0020000), wk =   0.1600000
        k(    7) = (   0.1999994  -0.5773531  -0.0020000), wk =   0.1600000
        k(    8) = (   0.1999996  -0.3464118  -0.0020000), wk =   0.1600000
        k(    9) = (   0.3999998  -0.2309410  -0.0040000), wk =   0.1600000
        k(   10) = (   0.4000000   0.0000002  -0.0040000), wk =   0.1600000
        k(   11) = (   0.4000002   0.2309415  -0.0040000), wk =   0.1600000
        k(   12) = (   0.3999993  -0.6928236  -0.0040000), wk =   0.1600000
        k(   13) = (   0.3999995  -0.4618823  -0.0040000), wk =   0.1600000

     Dense  grid:    70759 G-vectors     FFT dimensions: (  36,  36, 144)

     Estimated max dynamical RAM per process >      14.56 MB

     Estimated total dynamical RAM >      87.38 MB

     Atomic positions and unit cell read from directory:
     /scratch/asgouros//o.demo_/o.demo_.save/
     Atomic positions from file used, from input discarded


     The initial density is read from file :
     /scratch/asgouros//o.demo_/o.demo_.save/charge-density

     Starting wfcs from file

     total cpu time spent up to now is        0.5 secs

     Self-consistent Calculation

     iteration #  1     ecut=    80.00 Ry     beta= 0.70
     Davidson diagonalization with overlap
     ethr =  1.00E-05,  avg # of iterations = 13.6

     Threshold (ethr) on eigenvalues was too large:
     Diagonalizing with lowered threshold

     Davidson diagonalization with overlap
     ethr =  2.11E-09,  avg # of iterations = 10.1

     total cpu time spent up to now is        2.0 secs

     total energy              =     -57.25102276 Ry
     estimated scf accuracy    <          1.2E-09 Ry

     iteration #  2     ecut=    80.00 Ry     beta= 0.70
     Davidson diagonalization with overlap
     ethr =  6.54E-12,  avg # of iterations = 10.8

     total cpu time spent up to now is        2.9 secs

     total energy              =     -57.25102276 Ry
     estimated scf accuracy    <       0.00000002 Ry

     iteration #  3     ecut=    80.00 Ry     beta= 0.70
     Davidson diagonalization with overlap
     ethr =  6.54E-12,  avg # of iterations =  5.9

     total cpu time spent up to now is        3.5 secs

     End of self-consistent calculation

          k = 0.0000 0.0000 0.0000 (  8901 PWs)   bands (ev):

   -13.3909 -12.1048  -4.9003  -1.7608  -1.7607  -0.9684  -0.5558  -0.5553
     0.7289

          k = 0.0000 0.2309-0.0000 (  8893 PWs)   bands (ev):

   -12.8134 -11.8134  -4.3447  -2.7488  -2.3606  -1.3233  -1.1373  -0.2626
     0.3335

          k = 0.0000 0.4619-0.0000 (  8838 PWs)   bands (ev):

   -11.6367 -11.2426  -4.8488  -3.8464  -3.1874  -2.1938  -0.9487  -0.1065
    -0.0532

          k = 0.2000-0.1155-0.0020 (  8879 PWs)   bands (ev):

   -12.8134 -11.8134  -4.3446  -2.7488  -2.3608  -1.3230  -1.1373  -0.2626
     0.3334

          k = 0.2000 0.1155-0.0020 (  8879 PWs)   bands (ev):

   -12.8134 -11.8134  -4.3446  -2.7488  -2.3608  -1.3230  -1.1373  -0.2626
     0.3334

          k = 0.2000 0.3464-0.0020 (  8857 PWs)   bands (ev):

   -11.9081 -11.3572  -4.3225  -3.4189  -2.8625  -2.5387  -1.4104  -0.3552
     0.1007

          k = 0.2000-0.5774-0.0020 (  8841 PWs)   bands (ev):

   -11.2131 -11.0040  -4.5322  -4.4650  -3.1400  -2.3200  -1.8789  -1.0936
     0.6412

          k = 0.2000-0.3464-0.0020 (  8857 PWs)   bands (ev):

   -11.9081 -11.3572  -4.3225  -3.4189  -2.8625  -2.5387  -1.4104  -0.3552
     0.1007

          k = 0.4000-0.2309-0.0040 (  8825 PWs)   bands (ev):

   -11.6367 -11.2427  -4.8488  -3.8463  -3.1873  -2.1936  -0.9488  -0.1064
    -0.0534

          k = 0.4000 0.0000-0.0040 (  8845 PWs)   bands (ev):

   -11.9081 -11.3572  -4.3224  -3.4188  -2.8624  -2.5388  -1.4104  -0.3552
     0.1007

          k = 0.4000 0.2309-0.0040 (  8825 PWs)   bands (ev):

   -11.6367 -11.2427  -4.8488  -3.8463  -3.1873  -2.1936  -0.9488  -0.1064
    -0.0534

          k = 0.4000-0.6928-0.0040 (  8845 PWs)   bands (ev):

   -11.2131 -11.0041  -4.5323  -4.4649  -3.1400  -2.3199  -1.8789  -1.0938
     0.6412

          k = 0.4000-0.4619-0.0040 (  8845 PWs)   bands (ev):

   -11.2131 -11.0041  -4.5323  -4.4649  -3.1400  -2.3199  -1.8789  -1.0938
     0.6412

     highest occupied level (ev):     0.7289

!    total energy              =     -57.25102277 Ry
     estimated scf accuracy    <          8.8E-11 Ry

     The total energy is the sum of the following terms:
     one-electron contribution =    -192.52611328 Ry
     hartree contribution      =     102.08099299 Ry
     xc contribution           =     -13.16647529 Ry
     ewald contribution        =      46.36057281 Ry

     convergence has been achieved in   3 iterations

     Forces acting on atoms (cartesian axes, Ry/au):

     atom    1 type  2   force =    -0.00000012   -0.00004217   -0.00000051
     atom    2 type  1   force =    -0.00000032    0.00002109   -0.00000339
     atom    3 type  1   force =     0.00000044    0.00002108    0.00000389

     Total force =     0.000052     Total SCF correction =     0.000018
     SCF correction compared to forces is large: reduce conv_thr to get better values


     Computing stress (Cartesian axis) and pressure

          total   stress  (Ry/bohr**3)                   (kbar)     P=       -0.06
   0.00000195   0.00000000   0.00000002            0.29        0.00        0.00
   0.00000000   0.00000191  -0.00000000            0.00        0.28       -0.00
   0.00000002  -0.00000000  -0.00000499            0.00       -0.00       -0.73


     BFGS Geometry Optimization
     Energy error            =      0.0E+00 Ry
     Gradient error          =      4.2E-05 Ry/Bohr

     bfgs converged in   1 scf cycles and   0 bfgs steps
     (criteria: energy <  1.0E-05 Ry, force <  1.0E-04 Ry/Bohr)

     End of BFGS Geometry Optimization

     Final energy             =     -57.2510227659 Ry
Begin final coordinates

ATOMIC_POSITIONS (angstrom)
Mo              -0.0009484192        0.0109795127        0.0000000000
S                1.5680512348        0.9167814002        1.5626822540
S                1.5680512348        0.9167814002       -1.5626822540
End final coordinates



     Writing all to output data dir /scratch/asgouros//o.demo_/o.demo_.save/ :
     XML data file, charge density, pseudopotentials, collected wavefunctions

     init_run     :      0.39s CPU      0.40s WALL (       1 calls)
     electrons    :      2.69s CPU      3.05s WALL (       1 calls)
     forces       :      0.04s CPU      0.04s WALL (       1 calls)
     stress       :      0.27s CPU      0.28s WALL (       1 calls)

     Called by init_run:
     wfcinit      :      0.02s CPU      0.03s WALL (       1 calls)
     potinit      :      0.01s CPU      0.01s WALL (       1 calls)
     hinit0       :      0.34s CPU      0.35s WALL (       1 calls)

     Called by electrons:
     c_bands      :      2.45s CPU      2.68s WALL (       4 calls)
     sum_band     :      0.23s CPU      0.25s WALL (       4 calls)
     v_of_rho     :      0.01s CPU      0.01s WALL (       4 calls)
     mix_rho      :      0.00s CPU      0.01s WALL (       4 calls)

     Called by c_bands:
     init_us_2    :      0.07s CPU      0.07s WALL (     130 calls)
     cegterg      :      2.37s CPU      2.58s WALL (      52 calls)

     Called by *egterg:
     cdiaghg      :      0.07s CPU      0.07s WALL (     551 calls)
     h_psi        :      2.02s CPU      2.21s WALL (     577 calls)
     g_psi        :      0.02s CPU      0.02s WALL (     525 calls)

     Called by h_psi:
     h_psi:calbec :      0.10s CPU      0.11s WALL (     577 calls)
     vloc_psi     :      1.83s CPU      2.00s WALL (     577 calls)
     add_vuspsi   :      0.08s CPU      0.09s WALL (     577 calls)

     General routines
     calbec       :      0.11s CPU      0.12s WALL (     642 calls)
     fft          :      0.26s CPU      0.27s WALL (      17 calls)
     ffts         :      0.00s CPU      0.00s WALL (       4 calls)
     fftw         :      1.79s CPU      1.95s WALL (    5606 calls)

     Parallel routines

     PWSCF        :      3.49s CPU      3.93s WALL


   This run was terminated on:  16:25: 4  21Oct2025            

=------------------------------------------------------------------------------=
   JOB DONE.
=------------------------------------------------------------------------------=
