3
energy=-778.943158949 Lattice="3.137999817 -0.000003193 0.000000000 1.568998312 2.717572140 0.000000000 0.000000000 0.000000000 12.731047254" virial="-0.000099681 0.000000000 0.000000000 0.000000000 0.000199362 0.000000000 0.000000000 0.000000000 -0.048644232" Properties=species:S:1:pos:R:3:forces:R:3 config_type=ref
Mo -0.000945282 0.004798287 0.000000000 0.000001800 -0.000012341 0.000000000
S 1.568049670 0.910649295 1.562477078 -0.000001028 0.000006171 0.000204660
S 1.568049670 0.910649295 -1.562477078 -0.000001028 0.000006171 -0.000204660
