
     Program PWSCF v.7.3.1 starts on 21Oct2025 at 16:24:24 

     This program is part of the open-source Quantum ESPRESSO suite
     for quantum simulation of materials; please cite
         "P. Giannozzi et al., J. Phys.:Condens. Matter 21 395502 (2009);
         "P. Giannozzi et al., J. Phys.:Condens. Matter 29 465901 (2017);
         "P. Giannozzi et al., J. Chem. Phys. 152 154105 (2020);
          URL http://www.quantum-espresso.org", 
     in publications or presentations arising from this work. More details at
     http://www.quantum-espresso.org/quote

     Parallel version (MPI), running on     6 processors

     MPI processes distributed on     1 nodes
     1241 MiB available memory on the printing compute node when the environment starts

     Waiting for input...
     Reading input from standard input

     Current dimensions of program PWSCF are:
     Max number of different atomic species (ntypx) = 10
     Max number of k-points (npk) =  40000
     Max angular momentum in pseudopotentials (lmaxx) =  4

     R & G space division:  proc/nbgrp/npool/nimage =       6
     Subspace diagonalization in iterative solution of the eigenvalue problem:
     a serial algorithm will be used


     Parallelization info
     --------------------
     sticks:   dense  smooth     PW     G-vecs:    dense   smooth      PW
     Min         128     128     39                11791    11791    1937
     Max         129     129     41                11807    11807    1942
     Sum         769     769    241                70777    70777   11633

     Using Slab Decomposition



     bravais-lattice index     =            0
     lattice parameter (alat)  =       5.9300  a.u.
     unit-cell volume          =     732.6473 (a.u.)^3
     number of atoms/cell      =            3
     number of atomic types    =            2
     number of electrons       =        18.00
     number of Kohn-Sham states=            9
     kinetic-energy cutoff     =      80.0000  Ry
     charge density cutoff     =     320.0000  Ry
     scf convergence threshold =      1.0E-10
     mixing beta               =       0.7000
     number of iterations used =            8  plain     mixing
     energy convergence thresh.=      1.0E-05
     force convergence thresh. =      1.0E-04
     Exchange-correlation= SLA-PZ-NOGX-NOGC
                           (   1   1   0   0   0   0   0)
     nstep                     =           50


     celldm(1)=   5.929960  celldm(2)=   0.000000  celldm(3)=   0.000000
     celldm(4)=   0.000000  celldm(5)=   0.000000  celldm(6)=   0.000000

     crystal axes: (cart. coord. in units of alat)
               a(1) = (   1.000000  -0.000001   0.000000 )  
               a(2) = (   0.499999   0.866020   0.000000 )  
               a(3) = (   0.000000  -0.040571   4.057058 )  

     reciprocal axes: (cart. coord. in units 2 pi/alat)
               b(1) = (  0.999999 -0.577353 -0.005774 )  
               b(2) = (  0.000001  1.154706  0.011547 )  
               b(3) = ( -0.000000  0.000000  0.246484 )  


     PseudoPot. # 1 for S  read from file:
     ./pseudo_dir/S.pz-hgh.UPF
     MD5 check sum: 38f9f902ee430b58f9df3cf2bf519617
     Pseudo is Norm-conserving, Zval =  6.0
     Generated in analytical, separable form
     Using radial grid of 1151 points,  3 beta functions with: 
                l(1) =   0
                l(2) =   0
                l(3) =   1

     PseudoPot. # 2 for Mo read from file:
     ./pseudo_dir/Mo.pz-hgh.UPF
     MD5 check sum: ddacfae2313397baf1b67b06fa6affd0
     Pseudo is Norm-conserving, Zval =  6.0
     Generated in analytical, separable form
     Using radial grid of 1229 points,  6 beta functions with: 
                l(1) =   0
                l(2) =   0
                l(3) =   1
                l(4) =   1
                l(5) =   2
                l(6) =   2

     atomic species   valence    mass     pseudopotential
     S                 6.00    32.07000     S ( 1.00)
     Mo                6.00    95.94000     Mo( 1.00)

     No symmetry found



   Cartesian axes

     site n.     atom                  positions (alat units)
         1        Mo     tau(   1) = (  -0.0003012   0.0015291   0.0000000  )
         2        S      tau(   2) = (   0.4996972   0.2852213   0.4979213  )
         3        S      tau(   3) = (   0.4996972   0.2951798  -0.4979213  )

     number of k points=    13
                       cart. coord. in units 2pi/alat
        k(    1) = (   0.0000000   0.0000000   0.0000000), wk =   0.0800000
        k(    2) = (   0.0000002   0.2309413   0.0023094), wk =   0.1600000
        k(    3) = (   0.0000005   0.4618826   0.0046188), wk =   0.1600000
        k(    4) = (   0.1999999  -0.1154705  -0.0011547), wk =   0.1600000
        k(    5) = (   0.2000001   0.1154708   0.0011547), wk =   0.1600000
        k(    6) = (   0.2000004   0.3464120   0.0034641), wk =   0.1600000
        k(    7) = (   0.1999994  -0.5773531  -0.0057735), wk =   0.1600000
        k(    8) = (   0.1999996  -0.3464118  -0.0034641), wk =   0.1600000
        k(    9) = (   0.3999998  -0.2309410  -0.0023094), wk =   0.1600000
        k(   10) = (   0.4000000   0.0000002   0.0000000), wk =   0.1600000
        k(   11) = (   0.4000002   0.2309415   0.0023094), wk =   0.1600000
        k(   12) = (   0.3999993  -0.6928236  -0.0069282), wk =   0.1600000
        k(   13) = (   0.3999995  -0.4618823  -0.0046188), wk =   0.1600000

     Dense  grid:    70777 G-vectors     FFT dimensions: (  36,  36, 144)

     Estimated max dynamical RAM per process >      14.57 MB

     Estimated total dynamical RAM >      87.40 MB

     Atomic positions and unit cell read from directory:
     /scratch/asgouros//o.demo_/o.demo_.save/
     Atomic positions from file used, from input discarded


     The initial density is read from file :
     /scratch/asgouros//o.demo_/o.demo_.save/charge-density


     starting charge      17.8218, renormalised to      18.0000

     negative rho (up, down):  2.189E+00 0.000E+00
     Starting wfcs from file

     total cpu time spent up to now is        0.5 secs

     Self-consistent Calculation

     iteration #  1     ecut=    80.00 Ry     beta= 0.70
     Davidson diagonalization with overlap
     c_bands:  5 eigenvalues not converged
     c_bands:  5 eigenvalues not converged
     c_bands:  1 eigenvalues not converged
     c_bands:  5 eigenvalues not converged
     c_bands:  5 eigenvalues not converged
     c_bands:  1 eigenvalues not converged
     c_bands:  5 eigenvalues not converged
     ethr =  1.00E-05,  avg # of iterations = 30.5

     negative rho (up, down):  3.880E-01 0.000E+00

     total cpu time spent up to now is        3.3 secs

     total energy              =     -54.79798031 Ry
     estimated scf accuracy    <       6.29822843 Ry

     iteration #  2     ecut=    80.00 Ry     beta= 0.70
     Davidson diagonalization with overlap
     ethr =  1.00E-02,  avg # of iterations =  8.1

     negative rho (up, down):  3.017E-01 0.000E+00

     total cpu time spent up to now is        4.3 secs

     total energy              =     -53.91269843 Ry
     estimated scf accuracy    <      22.44962076 Ry

     iteration #  3     ecut=    80.00 Ry     beta= 0.70
     Davidson diagonalization with overlap
     ethr =  1.00E-02,  avg # of iterations =  6.5

     negative rho (up, down):  6.618E-02 0.000E+00

     total cpu time spent up to now is        4.9 secs

     total energy              =     -57.15326246 Ry
     estimated scf accuracy    <       0.22938324 Ry

     iteration #  4     ecut=    80.00 Ry     beta= 0.70
     Davidson diagonalization with overlap
     ethr =  1.27E-03,  avg # of iterations =  4.8

     negative rho (up, down):  6.424E-03 0.000E+00

     total cpu time spent up to now is        5.4 secs

     total energy              =     -57.20355818 Ry
     estimated scf accuracy    <       0.26775245 Ry

     iteration #  5     ecut=    80.00 Ry     beta= 0.70
     Davidson diagonalization with overlap
     ethr =  1.27E-03,  avg # of iterations =  3.8

     negative rho (up, down):  1.770E-03 0.000E+00

     total cpu time spent up to now is        5.8 secs

     total energy              =     -57.22928974 Ry
     estimated scf accuracy    <       0.09696445 Ry

     iteration #  6     ecut=    80.00 Ry     beta= 0.70
     Davidson diagonalization with overlap
     ethr =  5.39E-04,  avg # of iterations =  3.3

     negative rho (up, down):  1.742E-04 0.000E+00

     total cpu time spent up to now is        6.2 secs

     total energy              =     -57.24778625 Ry
     estimated scf accuracy    <       0.00539033 Ry

     iteration #  7     ecut=    80.00 Ry     beta= 0.70
     Davidson diagonalization with overlap
     ethr =  2.99E-05,  avg # of iterations =  5.7

     negative rho (up, down):  5.674E-05 0.000E+00

     total cpu time spent up to now is        6.8 secs

     total energy              =     -57.25030064 Ry
     estimated scf accuracy    <       0.00689037 Ry

     iteration #  8     ecut=    80.00 Ry     beta= 0.70
     Davidson diagonalization with overlap
     ethr =  2.99E-05,  avg # of iterations =  2.2

     total cpu time spent up to now is        7.2 secs

     total energy              =     -57.25037900 Ry
     estimated scf accuracy    <       0.00158848 Ry

     iteration #  9     ecut=    80.00 Ry     beta= 0.70
     Davidson diagonalization with overlap
     ethr =  8.82E-06,  avg # of iterations =  5.3

     total cpu time spent up to now is        7.7 secs

     total energy              =     -57.25099585 Ry
     estimated scf accuracy    <       0.00111981 Ry

     iteration # 10     ecut=    80.00 Ry     beta= 0.70
     Davidson diagonalization with overlap
     ethr =  6.22E-06,  avg # of iterations =  1.4

     total cpu time spent up to now is        8.0 secs

     total energy              =     -57.25079953 Ry
     estimated scf accuracy    <       0.00056960 Ry

     iteration # 11     ecut=    80.00 Ry     beta= 0.70
     Davidson diagonalization with overlap
     ethr =  3.16E-06,  avg # of iterations =  4.6

     total cpu time spent up to now is        8.4 secs

     total energy              =     -57.25102314 Ry
     estimated scf accuracy    <       0.00027732 Ry

     iteration # 12     ecut=    80.00 Ry     beta= 0.70
     Davidson diagonalization with overlap
     ethr =  1.54E-06,  avg # of iterations =  1.0

     total cpu time spent up to now is        8.7 secs

     total energy              =     -57.25100075 Ry
     estimated scf accuracy    <       0.00016240 Ry

     iteration # 13     ecut=    80.00 Ry     beta= 0.70
     Davidson diagonalization with overlap
     ethr =  9.02E-07,  avg # of iterations =  3.0

     total cpu time spent up to now is        9.1 secs

     total energy              =     -57.25101037 Ry
     estimated scf accuracy    <       0.00002646 Ry

     iteration # 14     ecut=    80.00 Ry     beta= 0.70
     Davidson diagonalization with overlap
     ethr =  1.47E-07,  avg # of iterations =  4.7

     total cpu time spent up to now is        9.5 secs

     total energy              =     -57.25102327 Ry
     estimated scf accuracy    <       0.00000296 Ry

     iteration # 15     ecut=    80.00 Ry     beta= 0.70
     Davidson diagonalization with overlap
     ethr =  1.65E-08,  avg # of iterations =  4.6

     total cpu time spent up to now is       10.0 secs

     total energy              =     -57.25102060 Ry
     estimated scf accuracy    <       0.00001222 Ry

     iteration # 16     ecut=    80.00 Ry     beta= 0.70
     Davidson diagonalization with overlap
     ethr =  1.65E-08,  avg # of iterations =  4.7

     total cpu time spent up to now is       10.5 secs

     total energy              =     -57.25102262 Ry
     estimated scf accuracy    <       0.00000003 Ry

     iteration # 17     ecut=    80.00 Ry     beta= 0.70
     Davidson diagonalization with overlap
     ethr =  1.74E-10,  avg # of iterations = 12.6

     total cpu time spent up to now is       11.6 secs

     total energy              =     -57.25102245 Ry
     estimated scf accuracy    <       0.00000340 Ry

     iteration # 18     ecut=    80.00 Ry     beta= 0.70
     Davidson diagonalization with overlap
     ethr =  1.74E-10,  avg # of iterations =  8.0

     total cpu time spent up to now is       12.4 secs

     total energy              =     -57.25102264 Ry
     estimated scf accuracy    <       0.00000016 Ry

     iteration # 19     ecut=    80.00 Ry     beta= 0.70
     Davidson diagonalization with overlap
     ethr =  1.74E-10,  avg # of iterations =  5.6

     total cpu time spent up to now is       13.0 secs

     total energy              =     -57.25102268 Ry
     estimated scf accuracy    <       0.00000003 Ry

     iteration # 20     ecut=    80.00 Ry     beta= 0.70
     Davidson diagonalization with overlap
     ethr =  1.43E-10,  avg # of iterations =  1.0

     total cpu time spent up to now is       13.3 secs

     total energy              =     -57.25102268 Ry
     estimated scf accuracy    <       0.00000001 Ry

     iteration # 21     ecut=    80.00 Ry     beta= 0.70
     Davidson diagonalization with overlap
     ethr =  8.29E-11,  avg # of iterations =  2.8

     total cpu time spent up to now is       13.6 secs

     total energy              =     -57.25102268 Ry
     estimated scf accuracy    <          1.4E-09 Ry

     iteration # 22     ecut=    80.00 Ry     beta= 0.70
     Davidson diagonalization with overlap
     ethr =  7.71E-12,  avg # of iterations =  4.9

     total cpu time spent up to now is       14.2 secs

     total energy              =     -57.25102268 Ry
     estimated scf accuracy    <          2.6E-10 Ry

     iteration # 23     ecut=    80.00 Ry     beta= 0.70
     Davidson diagonalization with overlap
     ethr =  1.45E-12,  avg # of iterations =  2.1

     total cpu time spent up to now is       14.5 secs

     total energy              =     -57.25102268 Ry
     estimated scf accuracy    <          1.4E-10 Ry

     iteration # 24     ecut=    80.00 Ry     beta= 0.70
     Davidson diagonalization with overlap
     ethr =  7.89E-13,  avg # of iterations =  3.2

     total cpu time spent up to now is       14.8 secs

     End of self-consistent calculation

          k = 0.0000 0.0000 0.0000 (  8909 PWs)   bands (ev):

   -13.3909 -12.1048  -4.9003  -1.7608  -1.7607  -0.9684  -0.5558  -0.5553
     0.7289

          k = 0.0000 0.2309 0.0023 (  8883 PWs)   bands (ev):

   -12.8134 -11.8134  -4.3447  -2.7488  -2.3606  -1.3233  -1.1373  -0.2626
     0.3335

          k = 0.0000 0.4619 0.0046 (  8824 PWs)   bands (ev):

   -11.6367 -11.2426  -4.8488  -3.8464  -3.1874  -2.1938  -0.9487  -0.1065
    -0.0532

          k = 0.2000-0.1155-0.0012 (  8886 PWs)   bands (ev):

   -12.8134 -11.8134  -4.3446  -2.7488  -2.3608  -1.3230  -1.1373  -0.2626
     0.3334

          k = 0.2000 0.1155 0.0012 (  8886 PWs)   bands (ev):

   -12.8134 -11.8134  -4.3446  -2.7488  -2.3608  -1.3230  -1.1373  -0.2626
     0.3334

          k = 0.2000 0.3464 0.0035 (  8854 PWs)   bands (ev):

   -11.9081 -11.3572  -4.3225  -3.4189  -2.8625  -2.5387  -1.4104  -0.3552
     0.1007

          k = 0.2000-0.5774-0.0058 (  8842 PWs)   bands (ev):

   -11.2131 -11.0040  -4.5322  -4.4650  -3.1400  -2.3200  -1.8789  -1.0936
     0.6412

          k = 0.2000-0.3464-0.0035 (  8854 PWs)   bands (ev):

   -11.9081 -11.3572  -4.3225  -3.4189  -2.8625  -2.5387  -1.4104  -0.3552
     0.1007

          k = 0.4000-0.2309-0.0023 (  8826 PWs)   bands (ev):

   -11.6367 -11.2427  -4.8488  -3.8463  -3.1873  -2.1936  -0.9488  -0.1064
    -0.0534

          k = 0.4000 0.0000 0.0000 (  8849 PWs)   bands (ev):

   -11.9081 -11.3572  -4.3224  -3.4188  -2.8624  -2.5388  -1.4104  -0.3552
     0.1006

          k = 0.4000 0.2309 0.0023 (  8826 PWs)   bands (ev):

   -11.6367 -11.2427  -4.8488  -3.8463  -3.1873  -2.1936  -0.9488  -0.1064
    -0.0534

          k = 0.4000-0.6928-0.0069 (  8844 PWs)   bands (ev):

   -11.2131 -11.0041  -4.5323  -4.4649  -3.1400  -2.3199  -1.8789  -1.0938
     0.6412

          k = 0.4000-0.4619-0.0046 (  8844 PWs)   bands (ev):

   -11.2131 -11.0041  -4.5323  -4.4649  -3.1400  -2.3199  -1.8789  -1.0938
     0.6412

     highest occupied level (ev):     0.7289

!    total energy              =     -57.25102268 Ry
     estimated scf accuracy    <          6.5E-11 Ry

     The total energy is the sum of the following terms:
     one-electron contribution =    -192.52614170 Ry
     hartree contribution      =     102.08102133 Ry
     xc contribution           =     -13.16647512 Ry
     ewald contribution        =      46.36057281 Ry

     convergence has been achieved in  24 iterations

     Forces acting on atoms (cartesian axes, Ry/au):

     atom    1 type  2   force =    -0.00000015   -0.00004217   -0.00000099
     atom    2 type  1   force =     0.00000009    0.00002082   -0.00000498
     atom    3 type  1   force =     0.00000006    0.00002136    0.00000597

     Total force =     0.000052     Total SCF correction =     0.000021
     SCF correction compared to forces is large: reduce conv_thr to get better values


     Computing stress (Cartesian axis) and pressure

          total   stress  (Ry/bohr**3)                   (kbar)     P=       -0.06
   0.00000193   0.00000000  -0.00000000            0.28        0.00       -0.00
   0.00000000   0.00000191  -0.00000002            0.00        0.28       -0.00
  -0.00000000  -0.00000002  -0.00000499           -0.00       -0.00       -0.73


     BFGS Geometry Optimization
     Energy error            =      0.0E+00 Ry
     Gradient error          =      4.2E-05 Ry/Bohr

     bfgs converged in   1 scf cycles and   0 bfgs steps
     (criteria: energy <  1.0E-05 Ry, force <  1.0E-04 Ry/Bohr)

     End of BFGS Geometry Optimization

     Final energy             =     -57.2510226799 Ry
Begin final coordinates

ATOMIC_POSITIONS (angstrom)
Mo              -0.0009484192        0.0109795127        0.0000000000
S                1.5680512348        0.9167814002        1.5626822540
S                1.5680512348        0.9167814002       -1.5626822540
End final coordinates



     Writing all to output data dir /scratch/asgouros//o.demo_/o.demo_.save/ :
     XML data file, charge density, pseudopotentials, collected wavefunctions

     init_run     :      0.37s CPU      0.38s WALL (       1 calls)
     electrons    :     13.23s CPU     14.36s WALL (       1 calls)
     forces       :      0.03s CPU      0.04s WALL (       1 calls)
     stress       :      0.27s CPU      0.28s WALL (       1 calls)

     Called by init_run:
     wfcinit      :      0.02s CPU      0.03s WALL (       1 calls)
     potinit      :      0.01s CPU      0.01s WALL (       1 calls)
     hinit0       :      0.33s CPU      0.33s WALL (       1 calls)

     Called by electrons:
     c_bands      :     11.81s CPU     12.84s WALL (      24 calls)
     sum_band     :      1.27s CPU      1.35s WALL (      24 calls)
     v_of_rho     :      0.06s CPU      0.06s WALL (      25 calls)
     mix_rho      :      0.08s CPU      0.10s WALL (      24 calls)

     Called by c_bands:
     init_us_2    :      0.33s CPU      0.35s WALL (     650 calls)
     cegterg      :     11.27s CPU     12.25s WALL (     320 calls)

     Called by *egterg:
     cdiaghg      :      0.25s CPU      0.27s WALL (    2046 calls)
     h_psi        :      9.84s CPU     10.71s WALL (    2067 calls)
     g_psi        :      0.09s CPU      0.10s WALL (    1747 calls)

     Called by h_psi:
     h_psi:calbec :      0.49s CPU      0.54s WALL (    2067 calls)
     vloc_psi     :      8.98s CPU      9.76s WALL (    2067 calls)
     add_vuspsi   :      0.33s CPU      0.36s WALL (    2067 calls)

     General routines
     calbec       :      0.50s CPU      0.55s WALL (    2132 calls)
     fft          :      0.30s CPU      0.30s WALL (      79 calls)
     ffts         :      0.01s CPU      0.02s WALL (      24 calls)
     fftw         :      8.86s CPU      9.62s WALL (   27658 calls)

     Parallel routines

     PWSCF        :     14.01s CPU     15.21s WALL


   This run was terminated on:  16:24:39  21Oct2025            

=------------------------------------------------------------------------------=
   JOB DONE.
=------------------------------------------------------------------------------=
